# Structure data of V (2x2x2 conventional) 

16 atoms
1 atom types

0.0 5.9647984505 xlo xhi
0.0 5.9647984505 ylo yhi
0.0 5.9647984505 zlo zhi
0.000000    0.000000    0.000000   xy xz yz

Masses

1 50.9415  # V

Atoms  # atomic

1 1 0.0 0.0 0.0
2 1 0.0 0.0 2.9823992253
3 1 0.0 2.9823992253 0.0
4 1 0.0 2.9823992253 2.9823992253
5 1 2.9823992253 0.0 0.0
6 1 2.9823992253 0.0 2.9823992253
7 1 2.9823992253 2.9823992253 0.0
8 1 2.9823992253 2.9823992253 2.9823992253
9 1 1.4911996126 1.4911996126 1.4911996126
10 1 1.4911996126 1.4911996126 4.4735988379
11 1 1.4911996126 4.4735988379 1.4911996126
12 1 1.4911996126 4.4735988379 4.4735988379
13 1 4.4735988379 1.4911996126 1.4911996126
14 1 4.4735988379 1.4911996126 4.4735988379
15 1 4.4735988379 4.4735988379 1.4911996126
16 1 4.4735988379 4.4735988379 4.4735988379
