# Structure data of Nb (2x2x2 conventional) 

16 atoms
1 atom types

0.0 6.6410398483 xlo xhi
0.0 6.6410398483 ylo yhi
0.0 6.6410398483 zlo zhi
0.000000    0.000000    0.000000   xy xz yz

Masses

1 92.90638  # Nb

Atoms  # atomic

1 1 0.0 0.0 0.0
2 1 0.0 0.0 3.3205199242
3 1 0.0 3.3205199242 0.0
4 1 0.0 3.3205199242 3.3205199242
5 1 3.3205199242 0.0 0.0
6 1 3.3205199242 0.0 3.3205199242
7 1 3.3205199242 3.3205199242 0.0
8 1 3.3205199242 3.3205199242 3.3205199242
9 1 1.6602599621 1.6602599621 1.6602599621
10 1 1.6602599621 1.6602599621 4.9807798862
11 1 1.6602599621 4.9807798862 1.6602599621
12 1 1.6602599621 4.9807798862 4.9807798862
13 1 4.9807798862 1.6602599621 1.6602599621
14 1 4.9807798862 1.6602599621 4.9807798862
15 1 4.9807798862 4.9807798862 1.6602599621
16 1 4.9807798862 4.9807798862 4.9807798862
