Disp. Num. 1 ( 0.010000 Angstrom, 1 : +x)

96 atoms
2 atom types

0.0 10.8076219559 xlo xhi
0.0 10.8076219559 ylo yhi
0.0 10.8076219559 zlo zhi
0.000000    0.000000    0.000000   xy xz yz

Masses

1 55.845  # Fe
2 32.065  # S

Atoms

    1   1   0.010000000000000   2.701905489000000   2.701905489000000
    2   1   0.000000000000000   2.701905489000000   8.105716466900001
    3   1   0.000000000000000   8.105716466900001   2.701905489000000
    4   1   0.000000000000000   8.105716466900001   8.105716466900001
    5   1   5.403810978000000   2.701905489000000   2.701905489000000
    6   1   5.403810978000000   2.701905489000000   8.105716466900001
    7   1   5.403810978000000   8.105716466900001   2.701905489000000
    8   1   5.403810978000000   8.105716466900001   8.105716466900001
    9   1   2.701905489000000   2.701905489000000   0.000000000000000
   10   1   2.701905489000000   2.701905489000000   5.403810978000000
   11   1   2.701905489000000   8.105716466900001   0.000000000000000
   12   1   2.701905489000000   8.105716466900001   5.403810978000000
   13   1   8.105716466900001   2.701905489000000   0.000000000000000
   14   1   8.105716466900001   2.701905489000000   5.403810978000000
   15   1   8.105716466900001   8.105716466900001   0.000000000000000
   16   1   8.105716466900001   8.105716466900001   5.403810978000000
   17   1   2.701905489000000   0.000000000000000   2.701905489000000
   18   1   2.701905489000000   0.000000000000000   8.105716466900001
   19   1   2.701905489000000   5.403810978000000   2.701905489000000
   20   1   2.701905489000000   5.403810978000000   8.105716466900001
   21   1   8.105716466900001   0.000000000000000   2.701905489000000
   22   1   8.105716466900001   0.000000000000000   8.105716466900001
   23   1   8.105716466900001   5.403810978000000   2.701905489000000
   24   1   8.105716466900001   5.403810978000000   8.105716466900001
   25   1   0.000000000000000   0.000000000000000   0.000000000000000
   26   1   0.000000000000000   0.000000000000000   5.403810978000000
   27   1   0.000000000000000   5.403810978000000   0.000000000000000
   28   1   0.000000000000000   5.403810978000000   5.403810978000000
   29   1   5.403810978000000   0.000000000000000   0.000000000000000
   30   1   5.403810978000000   0.000000000000000   5.403810978000000
   31   1   5.403810978000000   5.403810978000000   0.000000000000000
   32   1   5.403810978000000   5.403810978000000   5.403810978000000
   33   2   2.069054323700000   0.632851132900000   4.770959974800000
   34   2   2.069054323700000   0.632851132900000  10.174771266100000
   35   2   2.069054323700000   6.036662305400000   4.770959974800000
   36   2   2.069054323700000   6.036662305400000  10.174771266100000
   37   2   7.472865139500000   0.632851132900000   4.770959974800000
   38   2   7.472865139500000   0.632851132900000  10.174771266100000
   39   2   7.472865139500000   6.036662305400000   4.770959974800000
   40   2   7.472865139500000   6.036662305400000  10.174771266100000
   41   2   0.632851132900000   4.770959974800000   2.069054323700000
   42   2   0.632851132900000   4.770959974800000   7.472865139500000
   43   2   0.632851132900000  10.174771266100000   2.069054323700000
   44   2   0.632851132900000  10.174771266100000   7.472865139500000
   45   2   6.036662305400000   4.770959974800000   2.069054323700000
   46   2   6.036662305400000   4.770959974800000   7.472865139500000
   47   2   6.036662305400000  10.174771266100000   2.069054323700000
   48   2   6.036662305400000  10.174771266100000   7.472865139500000
   49   2   4.770959974800000   2.069054323700000   0.632851132900000
   50   2   4.770959974800000   2.069054323700000   6.036662305400000
   51   2   4.770959974800000   7.472865139500000   0.632851132900000
   52   2   4.770959974800000   7.472865139500000   6.036662305400000
   53   2  10.174771266100000   2.069054323700000   0.632851132900000
   54   2  10.174771266100000   2.069054323700000   6.036662305400000
   55   2  10.174771266100000   7.472865139500000   0.632851132900000
   56   2  10.174771266100000   7.472865139500000   6.036662305400000
   57   2   3.334756492100000   3.334756492100000   3.334756492100000
   58   2   3.334756492100000   3.334756492100000   8.738567156700000
   59   2   3.334756492100000   8.738567156700000   3.334756492100000
   60   2   3.334756492100000   8.738567156700000   8.738567156700000
   61   2   8.738567156700000   3.334756492100000   3.334756492100000
   62   2   8.738567156700000   3.334756492100000   8.738567156700000
   63   2   8.738567156700000   8.738567156700000   3.334756492100000
   64   2   8.738567156700000   8.738567156700000   8.738567156700000
   65   2   2.069054323700000   2.069054323700000   2.069054323700000
   66   2   2.069054323700000   2.069054323700000   7.472865139500000
   67   2   2.069054323700000   7.472865139500000   2.069054323700000
   68   2   2.069054323700000   7.472865139500000   7.472865139500000
   69   2   7.472865139500000   2.069054323700000   2.069054323700000
   70   2   7.472865139500000   2.069054323700000   7.472865139500000
   71   2   7.472865139500000   7.472865139500000   2.069054323700000
   72   2   7.472865139500000   7.472865139500000   7.472865139500000
   73   2   0.632851132900000   3.334756492100000   4.770959974800000
   74   2   0.632851132900000   3.334756492100000  10.174771266100000
   75   2   0.632851132900000   8.738567156700000   4.770959974800000
   76   2   0.632851132900000   8.738567156700000  10.174771266100000
   77   2   6.036662305400000   3.334756492100000   4.770959974800000
   78   2   6.036662305400000   3.334756492100000  10.174771266100000
   79   2   6.036662305400000   8.738567156700000   4.770959974800000
   80   2   6.036662305400000   8.738567156700000  10.174771266100000
   81   2   4.770959974800000   0.632851132900000   3.334756492100000
   82   2   4.770959974800000   0.632851132900000   8.738567156700000
   83   2   4.770959974800000   6.036662305400000   3.334756492100000
   84   2   4.770959974800000   6.036662305400000   8.738567156700000
   85   2  10.174771266100000   0.632851132900000   3.334756492100000
   86   2  10.174771266100000   0.632851132900000   8.738567156700000
   87   2  10.174771266100000   6.036662305400000   3.334756492100000
   88   2  10.174771266100000   6.036662305400000   8.738567156700000
   89   2   3.334756492100000   4.770959974800000   0.632851132900000
   90   2   3.334756492100000   4.770959974800000   6.036662305400000
   91   2   3.334756492100000  10.174771266100000   0.632851132900000
   92   2   3.334756492100000  10.174771266100000   6.036662305400000
   93   2   8.738567156700000   4.770959974800000   0.632851132900000
   94   2   8.738567156700000   4.770959974800000   6.036662305400000
   95   2   8.738567156700000  10.174771266100000   0.632851132900000
   96   2   8.738567156700000  10.174771266100000   6.036662305400000

