ITEM: TIMESTEP
0
ITEM: NUMBER OF ATOMS
96
ITEM: BOX BOUNDS xy xz yz pp pp pp
0.0000000000000000e+00 1.0807621955900000e+01 0.0000000000000000e+00
0.0000000000000000e+00 1.0807621955900000e+01 0.0000000000000000e+00
0.0000000000000000e+00 1.0807621955900000e+01 0.0000000000000000e+00
ITEM: ATOMS id xu yu zu fx fy fz
1    0.000000000000000    2.701905489000000    2.701905489000000   -0.000758910202421   -0.000622690655291    0.000516571104527
9    2.701905489000000    2.701905489000000    0.000000000000000   -0.000048454850912    0.000143341720104    0.000083613842435
17    2.701905489000000    0.000000000000000    2.701905489000000   -0.003465806134045    0.000752710504457    0.004604963585734
25    0.000000000000000    0.000000000000000    0.000000000000000   -0.000200659094844    0.000073775649071   -0.000094775110483
57    3.334756492100000    3.334756492100000    3.334756492100000   -0.043888047337532   -0.044929735362530   -0.041544623672962
65    2.069054323700000    2.069054323700000    2.069054323700000    0.045277796685696    0.042020875960588    0.044131375849247
5    5.403810978000001    2.701905489000000    2.701905489000000    0.000792946899310    0.001083468087018   -0.000678950920701
29    5.403810978000001    0.000000000000000    0.000000000000000    0.000191342085600   -0.000032624229789   -0.000210570171475
49    4.770959974800000    2.069054323700000    0.632851132900000    0.043992929160595    0.043791256844997   -0.043370708823204
81    4.770959974800000    0.632851132900000    3.334756492100000    0.033252090215683   -0.044124610722065   -0.040573850274086
13    8.105716466900001    2.701905489000000    0.000000000000000    0.000029936432838    0.000062990933657    0.000041098857764
21    8.105716466900001    0.000000000000000    2.701905489000000    0.001369285164401    0.000289310468361    0.000556834158488
53   10.174771266100000    2.069054323700000    0.632851132900000    0.043971262872219    0.044117085635662   -0.043942037969828
61    8.738567156700000    3.334756492100000    3.334756492100000   -0.044283591210842   -0.043401230126619   -0.044432543218136
69    7.472865139500000    2.069054323700000    2.069054323700000    0.043079704046249    0.044030662626028    0.043832246214151
85   10.174771266100000    0.632851132900000    3.334756492100000    0.032697252929211   -0.041311636567116   -0.054952815175056
19    2.701905489000000    5.403810978000001    2.701905489000000   -0.000120808370411    0.000023012478778   -0.000220695510507
27    0.000000000000000    5.403810978000001    0.000000000000000   -0.000009318813682   -0.000040359795094    0.000075626187027
41    0.632851132900000    4.770959974800000    2.069054323700000   -0.043816886842251    0.044159881770611    0.043796256184578
89    3.334756492100000    4.770959974800000    0.632851132900000   -0.043833479285240    0.043733045458794   -0.043813336640596
31    5.403810978000001    5.403810978000001    0.000000000000000   -0.000051883980632   -0.000007975349945   -0.000004062429070
45    6.036662305400000    4.770959974800000    2.069054323700000   -0.043944209814072    0.043448474258184    0.043963450938463
83    4.770959974800000    6.036662305400000    3.334756492100000    0.043900232762098   -0.043786305934191   -0.043692141771317
23    8.105716466900001    5.403810978000001    2.701905489000000    0.000028528971598   -0.000104455102701    0.000015694415197
87   10.174771266100000    6.036662305400000    3.334756492100000    0.043840367347002   -0.044150434434414   -0.043972425162792
93    8.738567156700000    4.770959974800000    0.632851132900000   -0.044047527015209    0.044025897979736   -0.043944582343102
3    0.000000000000000    8.105716466900001    2.701905489000000    0.000208202123758    0.000731592997909    0.001143049448729
11    2.701905489000000    8.105716466900001    0.000000000000000    0.000033849850297   -0.000152486551087   -0.000293398887152
43    0.632851132900000   10.174771266100000    2.069054323700000   -0.042205251753330    0.044450886547565    0.044297955930233
59    3.334756492100000    8.738567156700000    3.334756492100000   -0.043885245919228   -0.041196841746569   -0.044484101235867
67    2.069054323700000    7.472865139500000    2.069054323700000    0.044301047921181    0.043303500860929    0.043754436075687
91    3.334756492100000   10.174771266100000    0.632851132900000   -0.044033687561750    0.044601581990719   -0.041855782270432
7    5.403810978000001    8.105716466900001    2.701905489000000   -0.000113003210572   -0.000098145566881    0.000055056065321
47    6.036662305400000   10.174771266100000    2.069054323700000   -0.043969847261906    0.043665792793036    0.044135622680187
51    4.770959974800000    7.472865139500000    0.632851132900000    0.043727263808250    0.043862812221050   -0.043546292930841
15    8.105716466900001    8.105716466900001    0.000000000000000    0.000024714274332   -0.000033764692489   -0.000076141033787
55   10.174771266100000    7.472865139500000    0.632851132900000    0.043745197355747    0.043621998280287   -0.044204976409674
63    8.738567156700000    8.738567156700000    3.334756492100000   -0.044392690062523   -0.044124186038971   -0.044247820973396
71    7.472865139500000    7.472865139500000    2.069054323700000    0.043484784662724    0.043858408927917    0.043851509690285
95    8.738567156700000   10.174771266100000    0.632851132900000   -0.044212259352207    0.043874986469746   -0.043955419212580
10    2.701905489000000    2.701905489000000    5.403810978000001   -0.003309394232929   -0.004495111294091   -0.000977463554591
26    0.000000000000000    0.000000000000000    5.403810978000001   -0.015250443480909   -0.004921296611428    0.003541412763298
33    2.059054323700000    0.632851132900000    4.770959974800000    0.116816043853760   -0.050805442035198    0.050976034253836
73    0.632851132900000    3.334756492100000    4.770959974800000   -0.043675038963556   -0.040251679718494    0.044656980782747
30    5.403810978000001    0.000000000000000    5.403810978000001   -0.001116483472288    0.000629659742117    0.000218058936298
50    4.770959974800000    2.069054323700000    6.036662305400000    0.040349371731281    0.044295843690634   -0.044976480305195
77    6.036662305400000    3.334756492100000    4.770959974800000   -0.044268235564232   -0.044063650071621    0.043370392173529
14    8.105716466900001    2.701905489000000    5.403810978000001    0.000616007484496   -0.000339766964316   -0.000161176954862
37    7.472865139500000    0.632851132900000    4.770959974800000    0.043926253914833   -0.043826486915350    0.043557982891798
54   10.174771266100000    2.069054323700000    6.036662305400000    0.040242273360491    0.050950385630131   -0.041240844875574
28    0.000000000000000    5.403810978000001    5.403810978000001   -0.000033210963011   -0.000507084652781   -0.000217350199819
35    2.069054323700000    6.036662305400000    4.770959974800000    0.043937966227531   -0.043593108654022    0.043616935610771
90    3.334756492100000    4.770959974800000    6.036662305400000   -0.044429846107960    0.041638005524874   -0.044707901775837
32    5.403810978000001    5.403810978000001    5.403810978000001    0.000241782516241    0.000408671796322    0.000030545113987
39    7.472865139500000    6.036662305400000    4.770959974800000    0.043469659984112   -0.044346719980240    0.043788481503725
94    8.738567156700000    4.770959974800000    6.036662305400000   -0.043938953429461    0.044061932712793   -0.043840005993843
12    2.701905489000000    8.105716466900001    5.403810978000001   -0.001137061743066    0.000652728136629   -0.000649840978440
75    0.632851132900000    8.738567156700000    4.770959974800000   -0.043617676943541   -0.054893221706152    0.041982159018517
92    3.334756492100000   10.174771266100000    6.036662305400000   -0.061001691967249    0.059583842754364   -0.059617377817631
52    4.770959974800000    7.472865139500000    6.036662305400000    0.044212348759174    0.044129993766546   -0.043752811849117
79    6.036662305400000    8.738567156700000    4.770959974800000   -0.044285453855991   -0.044064901769161    0.043244659900665
16    8.105716466900001    8.105716466900001    5.403810978000001    0.000305489869788    0.000373051443603    0.000078387791291
56   10.174771266100000    7.472865139500000    6.036662305400000    0.044253811240196    0.044091917574406   -0.044159151613712
96    8.738567156700000   10.174771266100000    6.036662305400000   -0.050513215363026    0.041947629302740   -0.041697438806295
2    0.000000000000000    2.701905489000000    8.105716466900001    0.000052637478802   -0.000589566188864   -0.000589823641349
18    2.701905489000000    0.000000000000000    8.105716466900001   -0.000869706273079    0.000123427365907   -0.000369257293642
34    2.069054323700000    0.632851132900000   10.174771266100000    0.043979674577713   -0.043640982359648    0.043853081762791
58    3.334756492100000    3.334756492100000    8.738567156700000   -0.043699532747269   -0.043737202882767   -0.043367281556129
66    2.069054323700000    2.069054323700000    7.472865139500000    0.045356258749962    0.044726774096489    0.041399121284485
74    0.632851132900000    3.334756492100000   10.174771266100000   -0.043621342629194   -0.043662957847118    0.044088803231716
6    5.403810978000001    2.701905489000000    8.105716466900001    0.000204945914447   -0.000155648449436   -0.000075426709373
78    6.036662305400000    3.334756492100000   10.174771266100000   -0.043913241475821   -0.043798550963402    0.043764337897301
82    4.770959974800000    0.632851132900000    8.738567156700000    0.044110503047705   -0.043732963502407   -0.044111620634794
22    8.105716466900001    0.000000000000000    8.105716466900001    0.000302771921270    0.000011987343896   -0.000509785721079
38    7.472865139500000    0.632851132900000   10.174771266100000    0.043326638638973   -0.043821670114994    0.044283933937550
62    8.738567156700000    3.334756492100000    8.738567156700000   -0.044278554618359   -0.043633833527565   -0.043778754770756
70    7.472865139500000    2.069054323700000    7.472865139500000    0.043135747313499    0.044131938368082    0.044122718274593
86   10.174771266100000    0.632851132900000    8.738567156700000    0.044132627546787   -0.044275742024183   -0.044103939086199
20    2.701905489000000    5.403810978000001    8.105716466900001    0.000005010515451    0.000273719313554    0.000193805622985
36    2.069054323700000    6.036662305400000   10.174771266100000    0.043962657451630   -0.043822303414345    0.043842740356922
42    0.632851132900000    4.770959974800000    7.472865139500000   -0.043842900544405    0.044469006359577    0.044141747057438
46    6.036662305400000    4.770959974800000    7.472865139500000   -0.043965049088001    0.043740332126617    0.043616138398647
84    4.770959974800000    6.036662305400000    8.738567156700000    0.043843388557434   -0.043783113360405   -0.043801490217447
24    8.105716466900001    5.403810978000001    8.105716466900001   -0.000016386795323   -0.000027232454158    0.000010252697393
40    7.472865139500000    6.036662305400000   10.174771266100000    0.043786369264126   -0.043916627764702    0.043918147683144
88   10.174771266100000    6.036662305400000    8.738567156700000    0.043820880353451   -0.044296562671661   -0.043635725975037
4    0.000000000000000    8.105716466900001    8.105716466900001    0.000137578288559    0.000547114992514   -0.000421841687057
44    0.632851132900000   10.174771266100000    7.472865139500000   -0.042183130979538    0.041566617786884    0.050891898572445
60    3.334756492100000    8.738567156700000    8.738567156700000   -0.043726690113544   -0.044110570102930   -0.043737892061472
68    2.069054323700000    7.472865139500000    7.472865139500000    0.044320270419121    0.043419379740953    0.044251494109631
76    0.632851132900000    8.738567156700000   10.174771266100000   -0.043614745140076   -0.043987177312374    0.044047493487597
8    5.403810978000001    8.105716466900001    8.105716466900001   -0.000450575957075    0.000473454361781   -0.000511143822223
48    6.036662305400000   10.174771266100000    7.472865139500000   -0.044067163020372    0.043362531810999    0.044107772409916
80    6.036662305400000    8.738567156700000   10.174771266100000   -0.043895531445742   -0.043604150414467    0.043827563524246
64    8.738567156700000    8.738567156700000    8.738567156700000   -0.044288303703070   -0.044284127652645   -0.043460145592690
72    7.472865139500000    7.472865139500000    7.472865139500000    0.043493457138538    0.043769538402557    0.044305890798569
