ITEM: TIMESTEP
0
ITEM: NUMBER OF ATOMS
96
ITEM: BOX BOUNDS xy xz yz pp pp pp
0.0000000000000000e+00 1.0807621955900000e+01 0.0000000000000000e+00
0.0000000000000000e+00 1.0807621955900000e+01 0.0000000000000000e+00
0.0000000000000000e+00 1.0807621955900000e+01 0.0000000000000000e+00
ITEM: ATOMS id xu yu zu fx fy fz
1    0.010000000000000    2.701905489000000    2.701905489000000   -0.066497288644314   -0.000131469219923    0.000094408169389
9    2.701905489000000    2.701905489000000    0.000000000000000    0.002868157811463    0.000146437436342   -0.002935152733698
17    2.701905489000000    0.000000000000000    2.701905489000000    0.002904402092099   -0.002936219098046    0.000002674758434
25    0.000000000000000    0.000000000000000    0.000000000000000   -0.000311946583679    0.000012313947082    0.000062074512243
57    3.334756492100000    3.334756492100000    3.334756492100000   -0.042489729821682   -0.043315704911947   -0.043031811714172
65    2.069054323700000    2.069054323700000    2.069054323700000    0.059229765087366    0.038971830159426    0.039168842136860
5    5.403810978000001    2.701905489000000    2.701905489000000   -0.000758330163080   -0.000010017305613    0.000054519623518
29    5.403810978000001    0.000000000000000    0.000000000000000    0.000137235969305   -0.000102366320789   -0.000008908100426
49    4.770959974800000    2.069054323700000    0.632851132900000    0.042520664632320    0.043739646673203   -0.043303567916155
81    4.770959974800000    0.632851132900000    3.334756492100000    0.043161310255527   -0.043896447867155   -0.043835952877998
13    8.105716466900001    2.701905489000000    0.000000000000000    0.002786994911730   -0.000063709914684    0.002467855345458
21    8.105716466900001    0.000000000000000    2.701905489000000    0.002851165132597    0.002452547894791    0.000045622931793
53   10.174771266100000    2.069054323700000    0.632851132900000    0.047273904085159    0.044773668050766   -0.038875520229340
61    8.738567156700000    3.334756492100000    3.334756492100000   -0.028848037123680   -0.048255041241646   -0.048184670507908
69    7.472865139500000    2.069054323700000    2.069054323700000    0.044792234897614    0.044074457138777    0.044421087950468
85   10.174771266100000    0.632851132900000    3.334756492100000    0.047169309109449   -0.040323898196220   -0.044610291719437
19    2.701905489000000    5.403810978000001    2.701905489000000    0.002911066636443    0.002541382331401    0.000038368627429
27    0.000000000000000    5.403810978000001    0.000000000000000   -0.000301494263113    0.000051878392696   -0.000105214305222
41    0.632851132900000    4.770959974800000    2.069054323700000   -0.040611904114485    0.047451384365559    0.043125260621309
89    3.334756492100000    4.770959974800000    0.632851132900000   -0.044575899839401    0.043248254805803   -0.043067105114460
31    5.403810978000001    5.403810978000001    0.000000000000000    0.000101950019598   -0.000009117915397    0.000084562227130
45    6.036662305400000    4.770959974800000    2.069054323700000   -0.044397402554750    0.043748781085014    0.043846413493156
83    4.770959974800000    6.036662305400000    3.334756492100000    0.043527465313673   -0.044045995920897   -0.044104795902967
23    8.105716466900001    5.403810978000001    2.701905489000000    0.002854979829863   -0.002855389611796    0.000016480800696
87   10.174771266100000    6.036662305400000    3.334756492100000    0.044963039457798   -0.043544478714466   -0.043996553868055
93    8.738567156700000    4.770959974800000    0.632851132900000   -0.043083578348160    0.044376805424690   -0.044388279318810
3    0.000000000000000    8.105716466900001    2.701905489000000   -0.000219039327931   -0.000024078413844   -0.000088574364781
11    2.701905489000000    8.105716466900001    0.000000000000000    0.000085437903181   -0.000049586291425   -0.000130327796796
43    0.632851132900000   10.174771266100000    2.069054323700000   -0.042758945375681    0.043949309736490    0.043745577335358
59    3.334756492100000    8.738567156700000    3.334756492100000   -0.044032990932465   -0.043262906372547   -0.043959915637970
67    2.069054323700000    7.472865139500000    2.069054323700000    0.043880529701710    0.043255001306534    0.043961327522993
91    3.334756492100000   10.174771266100000    0.632851132900000   -0.043707665055990    0.043755136430264   -0.043192617595196
7    5.403810978000001    8.105716466900001    2.701905489000000    0.000171283041709    0.000015352852643   -0.000007623806596
47    6.036662305400000   10.174771266100000    2.069054323700000   -0.044067367911339    0.043517991900444    0.043542236089706
51    4.770959974800000    7.472865139500000    0.632851132900000    0.043734271079302    0.043753825128078   -0.043692909181118
15    8.105716466900001    8.105716466900001    0.000000000000000    0.000067745102569    0.000032791867852    0.000174475368112
55   10.174771266100000    7.472865139500000    0.632851132900000    0.043907485902309    0.043978568166494   -0.043834216892719
63    8.738567156700000    8.738567156700000    3.334756492100000   -0.043840516358614   -0.044434521347284   -0.043745212256908
71    7.472865139500000    7.472865139500000    2.069054323700000    0.043590221554041    0.044363576918840    0.043757088482380
95    8.738567156700000   10.174771266100000    0.632851132900000   -0.044011689722538    0.043141596019268   -0.044333793222904
10    2.701905489000000    2.701905489000000    5.403810978000001    0.002839887514710   -0.000009316951036    0.002534142695367
26    0.000000000000000    0.000000000000000    5.403810978000001   -0.000255752354860    0.000033814460039   -0.000148884078953
33    2.069054323700000    0.632851132900000    4.770959974800000    0.044627100229263   -0.043378725647926    0.043276481330395
73    0.632851132900000    3.334756492100000    4.770959974800000   -0.040406208485365   -0.042901024222374    0.048756781965494
30    5.403810978000001    0.000000000000000    5.403810978000001    0.000188350677490    0.000016104429960    0.000037683174014
50    4.770959974800000    2.069054323700000    6.036662305400000    0.043501257896423    0.044171776622534   -0.044269382953644
77    6.036662305400000    3.334756492100000    4.770959974800000   -0.045207329094410   -0.043891988694668    0.044281154870987
14    8.105716466900001    2.701905489000000    5.403810978000001    0.002803419716656    0.000159792602062   -0.002867981093004
37    7.472865139500000    0.632851132900000    4.770959974800000    0.043000333011150   -0.044369831681252    0.044473528862000
54   10.174771266100000    2.069054323700000    6.036662305400000    0.044728189706802    0.044513713568449   -0.044465862214565
28    0.000000000000000    5.403810978000001    5.403810978000001   -0.000248057767749    0.000015527009964    0.000058276578784
35    2.069054323700000    6.036662305400000    4.770959974800000    0.043653152883053   -0.044498041272163    0.043215796351433
90    3.334756492100000    4.770959974800000    6.036662305400000   -0.044058516621590    0.043372046202421   -0.043990481644869
32    5.403810978000001    5.403810978000001    5.403810978000001    0.000127360224724   -0.000102475285530   -0.000047538906074
39    7.472865139500000    6.036662305400000    4.770959974800000    0.044031485915184   -0.043939962983131    0.044338405132294
94    8.738567156700000    4.770959974800000    6.036662305400000   -0.043963499367237    0.045025981962681   -0.042794242501259
12    2.701905489000000    8.105716466900001    5.403810978000001    0.000024561770260    0.000039012636989    0.000092429632787
75    0.632851132900000    8.738567156700000    4.770959974800000   -0.043659821152687   -0.043648738414049    0.043700911104679
92    3.334756492100000   10.174771266100000    6.036662305400000   -0.043426062911749    0.043328270316124   -0.043401226401329
52    4.770959974800000    7.472865139500000    6.036662305400000    0.043805230408907    0.043920584022999   -0.043820269405842
79    6.036662305400000    8.738567156700000    4.770959974800000   -0.043853648006916   -0.043835893273354    0.043755900114775
16    8.105716466900001    8.105716466900001    5.403810978000001    0.000038318918087   -0.000047614565119   -0.000178409740329
56   10.174771266100000    7.472865139500000    6.036662305400000    0.043803349137306    0.043707504868507   -0.043815728276968
96    8.738567156700000   10.174771266100000    6.036662305400000   -0.043958622962236    0.043910477310419   -0.043990544974804
2    0.000000000000000    2.701905489000000    8.105716466900001   -0.000199483969482    0.000077712349594    0.000003353925422
18    2.701905489000000    0.000000000000000    8.105716466900001    0.000056765973568   -0.000178042653715   -0.000114218331873
34    2.069054323700000    0.632851132900000   10.174771266100000    0.043748944997787   -0.042716778814793    0.044887922704220
58    3.334756492100000    3.334756492100000    8.738567156700000   -0.044002901762724   -0.044018696993589   -0.043445378541946
66    2.069054323700000    2.069054323700000    7.472865139500000    0.044004116207361    0.044014528393745    0.043428216129541
74    0.632851132900000    3.334756492100000   10.174771266100000   -0.042926508933306   -0.043189395219088    0.043150790035725
6    5.403810978000001    2.701905489000000    8.105716466900001    0.000205035903491    0.000013865763322   -0.000057128432672
78    6.036662305400000    3.334756492100000   10.174771266100000   -0.044137947261333   -0.043489776551723    0.043416094034910
82    4.770959974800000    0.632851132900000    8.738567156700000    0.043794251978397   -0.043779525905848   -0.043735824525356
22    8.105716466900001    0.000000000000000    8.105716466900001    0.000039078353439    0.000122776720673   -0.000017079757527
38    7.472865139500000    0.632851132900000   10.174771266100000    0.043602123856544   -0.044262718409300    0.043750867247581
62    8.738567156700000    3.334756492100000    8.738567156700000   -0.043641522526741   -0.043604798614979   -0.044215857982635
70    7.472865139500000    2.069054323700000    7.472865139500000    0.043633297085762    0.043634399771690    0.044174216687679
86   10.174771266100000    0.632851132900000    8.738567156700000    0.043905012309551   -0.044013123959303   -0.044126484543085
20    2.701905489000000    5.403810978000001    8.105716466900001    0.000053463503718    0.000141677621286   -0.000034916025470
36    2.069054323700000    6.036662305400000   10.174771266100000    0.043686665594578   -0.043732441961765    0.043707046657801
42    0.632851132900000    4.770959974800000    7.472865139500000   -0.043747030198574    0.043648257851601    0.043540637940168
46    6.036662305400000    4.770959974800000    7.472865139500000   -0.043844804167747    0.043848514556885    0.043931059539318
84    4.770959974800000    6.036662305400000    8.738567156700000    0.043826803565025   -0.043880715966225   -0.043793469667435
24    8.105716466900001    5.403810978000001    8.105716466900001    0.000058867852204   -0.000171370396856   -0.000122598605230
40    7.472865139500000    6.036662305400000   10.174771266100000    0.044248890131712   -0.044359013438225    0.044321566820145
88   10.174771266100000    6.036662305400000    8.738567156700000    0.043812185525894   -0.043770529329777   -0.043852619826794
4    0.000000000000000    8.105716466900001    8.105716466900001   -0.000011394149624   -0.000021702959202   -0.000024016539101
44    0.632851132900000   10.174771266100000    7.472865139500000   -0.043816938996315    0.043877206742764    0.043803729116917
60    3.334756492100000    8.738567156700000    8.738567156700000   -0.043833985924721   -0.043842472136021   -0.043858058750629
68    2.069054323700000    7.472865139500000    7.472865139500000    0.043822549283504    0.043795295059681    0.043859552592039
76    0.632851132900000    8.738567156700000   10.174771266100000   -0.043812792748213   -0.043916407972574    0.043865993618965
8    5.403810978000001    8.105716466900001    8.105716466900001   -0.000046593369916    0.000043633743189   -0.000042547413614
48    6.036662305400000   10.174771266100000    7.472865139500000   -0.043840095400810    0.043792016804218    0.043857894837856
80    6.036662305400000    8.738567156700000   10.174771266100000   -0.043782718479633   -0.043684542179108    0.043844297528267
64    8.738567156700000    8.738567156700000    8.738567156700000   -0.043836914002895   -0.043861970305443   -0.043806709349155
72    7.472865139500000    7.472865139500000    7.472865139500000    0.043872267007828    0.043801594525576    0.043796800076962
