ITEM: TIMESTEP
0
ITEM: NUMBER OF ATOMS
96
ITEM: BOX BOUNDS xy xz yz pp pp pp
0.0000000000000000e+00 1.0807621955900000e+01 0.0000000000000000e+00
0.0000000000000000e+00 1.0807621955900000e+01 0.0000000000000000e+00
0.0000000000000000e+00 1.0807621955900000e+01 0.0000000000000000e+00
ITEM: ATOMS id xu yu zu fx fy fz
1    0.000000000000000    2.701905489000000    2.701905489000000    0.000759674585424    0.000561594963074   -0.000513311475515
9    2.701905489000000    2.701905489000000    0.000000000000000    0.000108550302684   -0.000101301819086   -0.000072957307566
17    2.701905489000000    0.000000000000000    2.701905489000000    0.003422272391617   -0.000715041765943   -0.004634225741029
25    0.000000000000000    0.000000000000000    0.000000000000000    0.000164366996614   -0.000067653134465    0.000118182972074
57    3.334756492100000    3.334756492100000    3.334756492100000   -0.043656557798386   -0.042587809264660   -0.046058900654316
65    2.069054323700000    2.069054323700000    2.069054323700000    0.042265132069588    0.045634247362614    0.043463081121445
5    5.403810978000001    2.701905489000000    2.701905489000000   -0.000807056087069   -0.001122592948377    0.000669823959470
29    5.403810978000001    0.000000000000000    0.000000000000000   -0.000202685594559    0.000031375326216    0.000254645012319
49    4.770959974800000    2.069054323700000    0.632851132900000    0.043675292283297    0.043854016810656   -0.044133104383945
81    4.770959974800000    0.632851132900000    3.334756492100000    0.054887901991606   -0.043454904109240   -0.047395318746567
13    8.105716466900001    2.701905489000000    0.000000000000000   -0.000029174610972   -0.000043233856559   -0.000010540708899
21    8.105716466900001    0.000000000000000    2.701905489000000   -0.001343341893516   -0.000263953872491   -0.000554251368158
53   10.174771266100000    2.069054323700000    0.632851132900000    0.043653372675180    0.043466664850712   -0.043503753840923
61    8.738567156700000    3.334756492100000    3.334756492100000   -0.043342579156160   -0.044162303209305   -0.043158255517483
69    7.472865139500000    2.069054323700000    2.069054323700000    0.044444624334574    0.043600544333458    0.043887473642826
85   10.174771266100000    0.632851132900000    3.334756492100000    0.054327193647623   -0.046310592442751   -0.033210512250662
19    2.701905489000000    5.403810978000001    2.701905489000000    0.000095154158771   -0.000038002159272    0.000195028260350
27    0.000000000000000    5.403810978000001    0.000000000000000   -0.000026255846024    0.000022329390049    0.000000949017704
41    0.632851132900000    4.770959974800000    2.069054323700000   -0.043786607682705    0.043434686958790    0.043858017772436
89    3.334756492100000    4.770959974800000    0.632851132900000   -0.043722242116928    0.043924503028393   -0.043704070150852
31    5.403810978000001    5.403810978000001    0.000000000000000   -0.000030875205994    0.000033572694520    0.000078037381172
45    6.036662305400000    4.770959974800000    2.069054323700000   -0.043636888265610    0.044230379164219    0.043789584189653
83    4.770959974800000    6.036662305400000    3.334756492100000    0.043815091252327   -0.043841183185577   -0.043982893228531
23    8.105716466900001    5.403810978000001    2.701905489000000   -0.000071438204031    0.000120494223665   -0.000039137667045
87   10.174771266100000    6.036662305400000    3.334756492100000    0.043754510581493   -0.043520234525204   -0.043650805950165
93    8.738567156700000    4.770959974800000    0.632851132900000   -0.043571144342422    0.043592326343060   -0.043510660529137
3    0.000000000000000    8.105716466900001    2.701905489000000   -0.000136216796818   -0.000663553364575   -0.001150654628873
11    2.701905489000000    8.105716466900001    0.000000000000000    0.000030932947993    0.000139349023812    0.000346697284840
43    0.632851132900000   10.174771266100000    2.069054323700000   -0.045498833060265    0.043174721300602    0.043469578027725
59    3.334756492100000    8.738567156700000    3.334756492100000   -0.043654013425112   -0.046443171799183   -0.043210178613663
67    2.069054323700000    7.472865139500000    2.069054323700000    0.043336395174265    0.044284928590059    0.043915800750256
91    3.334756492100000   10.174771266100000    0.632851132900000   -0.043611709028482    0.043006654828787   -0.045610304921865
7    5.403810978000001    8.105716466900001    2.701905489000000    0.000107707179268    0.000076350755990   -0.000124447047710
47    6.036662305400000   10.174771266100000    2.069054323700000   -0.043513216078281    0.043829292058945    0.043452724814415
51    4.770959974800000    7.472865139500000    0.632851132900000    0.043838128447533    0.043689213693142   -0.043900199234486
15    8.105716466900001    8.105716466900001    0.000000000000000    0.000009333831258    0.000032202340662    0.000164815399330
55   10.174771266100000    7.472865139500000    0.632851132900000    0.043855261057615    0.044021509587765   -0.043313968926668
63    8.738567156700000    8.738567156700000    3.334756492100000   -0.043450661003590   -0.043685100972652   -0.043522089719772
71    7.472865139500000    7.472865139500000    2.069054323700000    0.044209569692612    0.043837971985340    0.043958663940430
95    8.738567156700000   10.174771266100000    0.632851132900000   -0.043472729623318    0.043764498084784   -0.043563976883888
10    2.701905489000000    2.701905489000000    5.403810978000001    0.003220786340535    0.004600521177053    0.000925440224819
26    0.000000000000000    0.000000000000000    5.403810978000001    0.015106561593711    0.004841529764235   -0.003554127179086
33    2.079054323700000    0.632851132900000    4.770959974800000   -0.029204465448856   -0.036065585911274    0.036236226558685
73    0.632851132900000    3.334756492100000    4.770959974800000   -0.044132251292467   -0.047068364918232    0.042962618172169
30    5.403810978000001    0.000000000000000    5.403810978000001    0.001177340745926   -0.000586943700910   -0.000227022916079
50    4.770959974800000    2.069054323700000    6.036662305400000    0.047418735921383    0.043473772704601   -0.042634714394808
77    6.036662305400000    3.334756492100000    4.770959974800000   -0.043329343199730   -0.043528456240892    0.044174034148455
14    8.105716466900001    2.701905489000000    5.403810978000001   -0.000590194948018    0.000404058024287    0.000151318672579
37    7.472865139500000    0.632851132900000    4.770959974800000    0.043637000024319   -0.043776527047157    0.044032745063305
54   10.174771266100000    2.069054323700000    6.036662305400000    0.047303363680840    0.036946974694729   -0.046481337398291
28    0.000000000000000    5.403810978000001    5.403810978000001    0.000082669779658    0.000432344153523    0.000149965286255
35    2.069054323700000    6.036662305400000    4.770959974800000    0.043716371059418   -0.044067781418562    0.044008731842041
90    3.334756492100000    4.770959974800000    6.036662305400000   -0.043291307985783    0.045963402837515   -0.043113306164742
32    5.403810978000001    5.403810978000001    5.403810978000001   -0.000268811360002   -0.000425035133958   -0.000075675852713
39    7.472865139500000    6.036662305400000    4.770959974800000    0.044364433735609   -0.043462790548801    0.043789982795715
94    8.738567156700000    4.770959974800000    6.036662305400000   -0.043835699558258    0.043671004474163   -0.044031053781509
12    2.701905489000000    8.105716466900001    5.403810978000001    0.001116617349908   -0.000654020113871    0.000611480616499
75    0.632851132900000    8.738567156700000    4.770959974800000   -0.044073611497879   -0.033151503652334    0.045594226568937
92    3.334756492100000   10.174771266100000    6.036662305400000   -0.026021823287010    0.027191895991564   -0.027224235236645
52    4.770959974800000    7.472865139500000    6.036662305400000    0.043346874415874    0.043447192758322   -0.043920733034611
79    6.036662305400000    8.738567156700000    4.770959974800000   -0.043345548212528   -0.043522492051125    0.044225811958313
16    8.105716466900001    8.105716466900001    5.403810978000001   -0.000339452293701   -0.000392273650505   -0.000120722572319
56   10.174771266100000    7.472865139500000    6.036662305400000    0.043388497084379    0.043538384139538   -0.043562531471252
96    8.738567156700000   10.174771266100000    6.036662305400000   -0.037206746637821    0.045699547976255   -0.046020604670048
2    0.000000000000000    2.701905489000000    8.105716466900001   -0.000101921730675    0.000594153767452    0.000574664212763
18    2.701905489000000    0.000000000000000    8.105716466900001    0.000933229923248   -0.000215565552935    0.000355596654117
34    2.069054323700000    0.632851132900000   10.174771266100000    0.043666623532772   -0.044032737612724    0.043802425265312
58    3.334756492100000    3.334756492100000    8.738567156700000   -0.043919622898102   -0.043904736638069   -0.044310912489891
66    2.069054323700000    2.069054323700000    7.472865139500000    0.042344726622105    0.043031178414822    0.046399500221014
74    0.632851132900000    3.334756492100000   10.174771266100000   -0.044010661542416   -0.043953575193882    0.043505754321814
6    5.403810978000001    2.701905489000000    8.105716466900001   -0.000211343663977    0.000123600941151    0.000000332132913
78    6.036662305400000    3.334756492100000   10.174771266100000   -0.043742910027504   -0.043805792927742    0.043888203799725
82    4.770959974800000    0.632851132900000    8.738567156700000    0.043518431484699   -0.043895207345486   -0.043576896190643
22    8.105716466900001    0.000000000000000    8.105716466900001   -0.000331750488840   -0.000024592503905    0.000541200512089
38    7.472865139500000    0.632851132900000   10.174771266100000    0.044304564595222   -0.043837402015924    0.043400026857853
62    8.738567156700000    3.334756492100000    8.738567156700000   -0.043360471725464   -0.043987676501274   -0.043914500623941
70    7.472865139500000    2.069054323700000    7.472865139500000    0.044499929994345    0.043547801673412    0.043492484837770
86   10.174771266100000    0.632851132900000    8.738567156700000    0.043540999293327   -0.043381821364164   -0.043559793382883
20    2.701905489000000    5.403810978000001    8.105716466900001    0.000001415610313   -0.000253674865235   -0.000216716711293
36    2.069054323700000    6.036662305400000   10.174771266100000    0.043702375143766   -0.043824229389429    0.043858874589205
42    0.632851132900000    4.770959974800000    7.472865139500000   -0.043812401592731    0.043194860219955    0.043491266667843
46    6.036662305400000    4.770959974800000    7.472865139500000   -0.043658360838890    0.043876431882381    0.044016763567924
84    4.770959974800000    6.036662305400000    8.738567156700000    0.043826192617416   -0.043891049921513   -0.043808944523335
24    8.105716466900001    5.403810978000001    8.105716466900001    0.000037807854824    0.000001004373189   -0.000057404511608
40    7.472865139500000    6.036662305400000   10.174771266100000    0.043785739690065   -0.043744772672653    0.043747048825026
88   10.174771266100000    6.036662305400000    8.738567156700000    0.043804056942463   -0.043345414102077   -0.044042341411114
4    0.000000000000000    8.105716466900001    8.105716466900001   -0.000150888692588   -0.000552061828785    0.000453959684819
44    0.632851132900000   10.174771266100000    7.472865139500000   -0.045474659651518    0.046076934784651    0.036891296505928
60    3.334756492100000    8.738567156700000    8.738567156700000   -0.043946739286184   -0.043513245880604   -0.043901629745960
68    2.069054323700000    7.472865139500000    7.472865139500000    0.043355546891689    0.044222161173820    0.043357551097870
76    0.632851132900000    8.738567156700000   10.174771266100000   -0.044002927839756   -0.043665226548910    0.043617725372314
8    5.403810978000001    8.105716466900001    8.105716466900001    0.000453100074083   -0.000486651668325    0.000526386662386
48    6.036662305400000   10.174771266100000    7.472865139500000   -0.043610770255327    0.044306680560112    0.043555133044720
80    6.036662305400000    8.738567156700000   10.174771266100000   -0.043724790215492   -0.044010810554028    0.043808557093143
64    8.738567156700000    8.738567156700000    8.738567156700000   -0.043370280414820   -0.043393552303314   -0.044241048395634
72    7.472865139500000    7.472865139500000    7.472865139500000    0.044219300150871    0.043893236666918    0.043354198336601
