ITEM: TIMESTEP
0
ITEM: NUMBER OF ATOMS
32
ITEM: BOX BOUNDS xy xz yz pp pp pp
0.0000000000000000e+00 8.0799990000000008e+00 0.0000000000000000e+00
0.0000000000000000e+00 8.0799990000000008e+00 0.0000000000000000e+00
0.0000000000000000e+00 8.0799990000000008e+00 0.0000000000000000e+00
ITEM: ATOMS id xu yu zu fx fy fz
     1    0.010019198760000    0.000000000000000    0.000000000000000   -0.054599885146250   -0.000644664626732   -0.000644275688797
     2    0.000000000000000    0.000000000000000    4.039999500000000    0.012391018085797    0.001225154494242    0.000736609554490
     3    0.000000000000000    4.039999500000000    0.000000000000000    0.012390901404416    0.000773947596220    0.001178754198635
     4    0.000000000000000    4.039999500000000    4.039999500000000    0.010631151718957   -0.001190927955990   -0.001167863936464
     5    4.039999500000000    0.000000000000000    0.000000000000000    0.013440644890118   -0.001245729310987   -0.001222276353525
     6    4.039999500000000    0.000000000000000    4.039999500000000    0.013711345692655    0.000862819914294    0.001155612391521
     7    4.039999500000000    4.039999500000000    0.000000000000000    0.013711306798861    0.001201779324368    0.000824898465663
     8    4.039999500000000    4.039999500000000    4.039999500000000    0.016182423966851   -0.000631479630746   -0.000631129586605
     9    0.000000000000000    2.019999750000000    2.019999750000000   -0.013195380628508    0.002520901223629    0.002539648032080
    10    0.000000000000000    2.019999750000000    6.059999250000001   -0.013926000538805    0.000408812663142   -0.002800314235903
    11    0.000000000000000    6.059999250000001    2.019999750000000   -0.013912737755232   -0.002797241626219    0.000382014839443
    12    0.000000000000000    6.059999250000001    6.059999250000001   -0.014772212803288   -0.000711873101845   -0.000667728646259
    13    4.039999500000000    2.019999750000000    2.019999750000000   -0.014187211255736   -0.000623467509292   -0.000579400841293
    14    4.039999500000000    2.019999750000000    6.059999250000001   -0.013380553979210   -0.002740456687755    0.000329547112054
    15    4.039999500000000    6.059999250000001    2.019999750000000   -0.013392961099326    0.000356772767482   -0.002743218147092
    16    4.039999500000000    6.059999250000001    6.059999250000001   -0.012736706122140    0.002433390188326    0.002452136996777
    17    2.019999750000000    0.000000000000000    2.019999750000000    0.010986174265732   -0.000476448969983    0.005783118150757
    18    2.019999750000000    0.000000000000000    6.059999250000001    0.011631500086954    0.001032319066228   -0.005350930317741
    19    2.019999750000000    4.039999500000000    2.019999750000000   -0.002612184956898    0.000282407834371   -0.002796697113110
    20    2.019999750000000    4.039999500000000    6.059999250000001   -0.001828241655757   -0.000986930009251    0.002765543184542
    21    6.059999250000001    0.000000000000000    2.019999750000000    0.007993141283196   -0.000994942130705   -0.007016518129214
    22    6.059999250000001    0.000000000000000    6.059999250000001    0.007143078533159    0.000253159701683    0.007281851588253
    23    6.059999250000001    4.039999500000000    2.019999750000000    0.001534049001965    0.000980823683676    0.005096876058808
    24    6.059999250000001    4.039999500000000    6.059999250000001    0.000965382847669   -0.000459530169824   -0.004656014909848
    25    2.019999750000000    2.019999750000000    0.000000000000000    0.010966260643477    0.005784557221115   -0.000457079860836
    26    2.019999750000000    2.019999750000000    4.039999500000000   -0.002602967127846   -0.002781217383310    0.000293259202749
    27    2.019999750000000    6.059999250000001    0.000000000000000    0.011628855308998   -0.005338445410037    0.001052582732625
    28    2.019999750000000    6.059999250000001    4.039999500000000   -0.001806188874861    0.002768110174911   -0.000976623153982
    29    6.059999250000001    2.019999750000000    0.000000000000000    0.008015466320647   -0.007013095475389   -0.000984713063023
    30    6.059999250000001    2.019999750000000    4.039999500000000    0.001531248648835    0.005109555435478    0.001000737305932
    31    6.059999250000001    6.059999250000001    0.000000000000000    0.007152257468418    0.007298070300129    0.000264088857648
    32    6.059999250000001    6.059999250000001    4.039999500000000    0.000944963606099   -0.004654070220175   -0.000440627786199
