ITEM: TIMESTEP
0
ITEM: NUMBER OF ATOMS
64
ITEM: BOX BOUNDS xy xz yz pp pp pp
0.0000000000000000e+00 1.0800000000000001e+01 0.0000000000000000e+00
0.0000000000000000e+00 1.0800000000000001e+01 0.0000000000000000e+00
0.0000000000000000e+00 1.0800000000000001e+01 0.0000000000000000e+00
ITEM: ATOMS id xu yu zu fx fy fz
     1   -0.040000000000000    0.000000000000000    0.000000000000000    0.527039877057319   -0.012249354910167   -0.015614420498474
     2    0.000000000000000    0.000000000000000    5.400000000000000    0.003775951659702   -0.012402785199882    0.015689611312719
     3    0.000000000000000    2.660000000000000    2.700000000000000    0.016065129736032    0.527057576436541   -0.000472875242031
     4    0.000000000000000    2.700000000000000    8.100000000000000    0.016216611900012    0.003814368688918   -0.000463875245662
     5    0.000000000000000    5.400000000000000    0.000000000000000    0.002829138486806   -0.011791821550395    0.014790019041571
     6    0.000000000000000    5.400000000000000    5.400000000000000    0.008196898105533   -0.011801876419440   -0.014851790953893
     7    0.000000000000000    8.100000000000000    2.700000000000000    0.016242605353204   -0.005861766972766    0.000489987792406
     8    0.000000000000000    8.100000000000000    8.100000000000000    0.015858387598460    0.002422512169609    0.000386741705001
     9    1.350000000000000    1.350000000000000    1.350000000000000   -0.009200067313789   -0.205730375116368   -0.182592337508239
    10    1.350000000000000    1.350000000000000    6.750000000000000    0.003898752589466    0.000967287802110   -0.000439097204899
    11    1.350000000000000    4.050000000000000    4.050000000000000   -0.082498322838781   -0.108868114482458   -0.080886615457999
    12    1.350000000000000    4.050000000000000    9.449999999999999    0.000927812146406    0.002603533751000    0.001385958251757
    13    1.350000000000000    6.750000000000000    1.350000000000000    0.002687775058103   -0.001974180997848   -0.001763810672141
    14    1.350000000000000    6.750000000000000    6.750000000000000   -0.000157167235562   -0.001552137207925    0.001138321723123
    15    1.350000000000000    9.449999999999999    4.050000000000000    0.002259579181210   -0.000329291047692   -0.000072234609932
    16    1.350000000000000    9.449999999999999    9.449999999999999   -0.110506624288692    0.080740168596122    0.083490923985572
    17    2.700000000000000    0.000000000000000    2.700000000000000    0.003940568258625   -0.011949668894469   -0.014375733918857
    18    2.700000000000000    0.000000000000000    8.100000000000000   -0.013701089774897   -0.003135101493721    0.014998512409711
    19    2.700000000000000    2.700000000000000    0.000000000000000   -0.011268075364093    0.001412693571387    0.000075586095822
    20    2.700000000000000    2.700000000000000    5.400000000000000   -0.003092768364110    0.017808121765202   -0.000198116391146
    21    2.700000000000000    5.400000000000000    2.700000000000000   -0.017454096179832   -0.011524148097344    0.002394665413008
    22    2.700000000000000    5.400000000000000    8.100000000000000   -0.000798341463531   -0.002916994715147   -0.001624130545429
    23    2.700000000000000    8.100000000000000    0.000000000000000   -0.011537185704498    0.012541435239363   -0.000702483855735
    24    2.700000000000000    8.100000000000000    5.400000000000000   -0.002923246920918   -0.004129607006052   -0.000503682316712
    25    4.050000000000000    1.350000000000000    4.050000000000000   -0.001075594542706    0.003163645842343    0.003320679997547
    26    4.050000000000000    1.350000000000000    9.449999999999999   -0.002460338976119   -0.000672447135327    0.000465282359629
    27    4.050000000000000    4.050000000000000    1.350000000000000   -0.000623002896839    0.004358164963690    0.002184822883593
    28    4.050000000000000    4.050000000000000    6.750000000000000   -0.001477737933852   -0.001061477534540    0.001029684544201
    29    4.050000000000000    6.750000000000000    4.050000000000000   -0.000325945012544   -0.000502062983796    0.000355255087451
    30    4.050000000000000    6.750000000000000    9.449999999999999   -0.001058731749404   -0.004131102874539   -0.000364725750175
    31    4.050000000000000    9.449999999999999    1.350000000000000   -0.003613662527245   -0.001113830720445    0.000971009886975
    32    4.050000000000000    9.449999999999999    6.750000000000000   -0.000511590416503   -0.002827260243686   -0.001642432385813
    33    5.400000000000000    0.000000000000000    0.000000000000000   -0.005593533790307   -0.002676286181340    0.001964943122908
    34    5.400000000000000    0.000000000000000    5.400000000000000    0.002266278502021   -0.002650522070652   -0.001975327607526
    35    5.400000000000000    2.700000000000000    2.700000000000000   -0.002248820035272    0.003089019334072   -0.000245429235585
    36    5.400000000000000    2.700000000000000    8.100000000000000   -0.002244928360367    0.007916427083625   -0.000229512402980
    37    5.400000000000000    5.400000000000000    0.000000000000000    0.001785121013099   -0.002669922235375   -0.001860179364051
    38    5.400000000000000    5.400000000000000    5.400000000000000   -0.003843206451964   -0.002659027078020    0.001869410656964
    39    5.400000000000000    8.100000000000000    2.700000000000000   -0.002251046560182    0.001801564870665    0.000225745426634
    40    5.400000000000000    8.100000000000000    8.100000000000000   -0.002238716932310   -0.003833466646041    0.000254221743836
    41    6.750000000000000    1.350000000000000    1.350000000000000   -0.001627523220409    0.002318672619906   -0.001651094024855
    42    6.750000000000000    1.350000000000000    6.750000000000000   -0.000251185989556   -0.001654921165042    0.001150678758967
    43    6.750000000000000    4.050000000000000    4.050000000000000   -0.002379803813034    0.002731566106703   -0.001294883463620
    44    6.750000000000000    4.050000000000000    9.449999999999999   -0.001663810141127   -0.002592762263762    0.000017230049842
    45    6.750000000000000    6.750000000000000    1.350000000000000   -0.002808810050583    0.000997978200077   -0.001393684985850
    46    6.750000000000000    6.750000000000000    6.750000000000000   -0.001920632454128   -0.002487572627186   -0.000544325356617
    47    6.750000000000000    9.449999999999999    4.050000000000000    0.000887489466098   -0.000157651940147   -0.002544943528839
    48    6.750000000000000    9.449999999999999    9.449999999999999   -0.002139431425405   -0.001977079969379   -0.000057219720720
    49    8.100000000000000    0.000000000000000    2.700000000000000   -0.028163500607969   -0.011994982139664    0.015254572441706
    50    8.100000000000000    0.000000000000000    8.100000000000000   -0.010386688979717   -0.003069464183181   -0.015871493802678
    51    8.100000000000000    2.700000000000000    0.000000000000000   -0.011970949564884    0.031620596869573    0.000833835507101
    52    8.100000000000000    2.700000000000000    5.400000000000000   -0.003194449008946    0.014303257059476    0.000741734951189
    53    8.100000000000000    5.400000000000000    2.700000000000000    0.012148863555341   -0.011590137340642   -0.002467648625671
    54    8.100000000000000    5.400000000000000    8.100000000000000   -0.004552449380974   -0.002903748437166    0.001721318031217
    55    8.100000000000000    8.100000000000000    0.000000000000000   -0.012167721782698   -0.017952687967122   -0.000179855277054
    56    8.100000000000000    8.100000000000000    5.400000000000000   -0.002904468397795   -0.000284628651842   -0.000006779025045
    57    9.449999999999999    1.350000000000000    4.050000000000000   -0.098267766374668   -0.122392298602586    0.100530510533861
    58    9.449999999999999    1.350000000000000    9.449999999999999   -0.125265889220332    0.103237233396595   -0.100483640742117
    59    9.449999999999999    4.050000000000000    1.350000000000000    0.084254836716891   -0.109991326802574    0.083179764314048
    60    9.449999999999999    4.050000000000000    6.750000000000000    0.000656052283010    0.001814245454276    0.000820547217276
    61    9.449999999999999    6.750000000000000    4.050000000000000   -0.001123819820642   -0.001158226184245   -0.000431111457758
    62    9.449999999999999    6.750000000000000    9.449999999999999    0.001862346804984   -0.000514279071702   -0.003335421886904
    63    9.449999999999999    9.449999999999999    1.350000000000000   -0.123545823574024   -0.102643450534590    0.100933102119910
    64    9.449999999999999    9.449999999999999    6.750000000000000    0.003238489866040   -0.002340222073566   -0.001523764197694
