ITEM: TIMESTEP
0
ITEM: NUMBER OF ATOMS
64
ITEM: BOX BOUNDS xy xz yz pp pp pp
0.0000000000000000e+00 1.0800000000000001e+01 0.0000000000000000e+00
0.0000000000000000e+00 1.0800000000000001e+01 0.0000000000000000e+00
0.0000000000000000e+00 1.0800000000000001e+01 0.0000000000000000e+00
ITEM: ATOMS id xu yu zu fx fy fz
     1    0.040000000000000    0.000000000000000    0.000000000000000   -0.511246781727201    0.000596008872693    0.000595163802129
     2    0.000000000000000    0.000000000000000    5.400000000000000    0.012928072300418   -0.000523242764078    0.000497336008523
     3   -0.040000000000000    2.700000000000000    2.700000000000000    0.511566683821864    0.000378181161780    0.000379369114815
     4    0.000000000000000    2.700000000000000    8.100000000000000   -0.012594652110627   -0.000424120830829    0.000447885445117
     5    0.000000000000000    5.400000000000000    0.000000000000000    0.012928094360493    0.000496232130599   -0.000521964359593
     6    0.000000000000000    5.400000000000000    5.400000000000000    0.008244305977986   -0.000393123545851   -0.000394388014951
     7    0.000000000000000    8.100000000000000    2.700000000000000   -0.012594666405967    0.000449099931949   -0.000425188764715
     8    0.000000000000000    8.100000000000000    8.100000000000000   -0.008577396295094   -0.000552668127303   -0.000551240855878
     9    1.350000000000000    1.350000000000000    1.350000000000000    0.013669793059111    0.182477546031198    0.182477331035455
    10    1.350000000000000    1.350000000000000    6.750000000000000   -0.000036463298473    0.003003082743631    0.000445700880630
    11    1.350000000000000    4.050000000000000    4.050000000000000   -0.108939383077079   -0.082398859565724   -0.082398115950936
    12    1.350000000000000    4.050000000000000    9.449999999999999   -0.000032955643708   -0.001839039230197   -0.001611745895924
    13    1.350000000000000    6.750000000000000    1.350000000000000   -0.000036458876174    0.000445756827860    0.003003218806471
    14    1.350000000000000    6.750000000000000    6.750000000000000    0.000095113273098    0.001402878380686    0.001402883060096
    15    1.350000000000000    9.449999999999999    4.050000000000000   -0.000032944587959   -0.001611837787192   -0.001839068797897
    16    1.350000000000000    9.449999999999999    9.449999999999999    0.122881200566221   -0.101501085595675   -0.101502002245783
    17    2.700000000000000    0.000000000000000    2.700000000000000    0.000626974224555    0.014401006485823    0.015154665807422
    18    2.700000000000000    0.000000000000000    8.100000000000000    0.009759474254064   -0.001420870094468   -0.015934532035294
    19    2.700000000000000    2.700000000000000    0.000000000000000    0.000627063647563    0.015154514420800    0.014401046389362
    20    2.700000000000000    2.700000000000000    5.400000000000000   -0.009101049253154   -0.001473403771895   -0.015060610080949
    21    2.700000000000000    5.400000000000000    2.700000000000000   -0.009100746634177   -0.015060647413383   -0.001473303447405
    22    2.700000000000000    5.400000000000000    8.100000000000000    0.000007291548978    0.002106966862620    0.002216613817049
    23    2.700000000000000    8.100000000000000    0.000000000000000    0.009759716092136   -0.015934465083738   -0.001420958643301
    24    2.700000000000000    8.100000000000000    5.400000000000000    0.000007237401521    0.002216673106714    0.002106948762046
    25    4.050000000000000    1.350000000000000    4.050000000000000   -0.000891449789488   -0.000964572098894   -0.001599988801560
    26    4.050000000000000    1.350000000000000    9.449999999999999    0.001106507186930   -0.000848757116650   -0.001671193478528
    27    4.050000000000000    4.050000000000000    1.350000000000000   -0.000891449686644   -0.001599456685812   -0.000964865153364
    28    4.050000000000000    4.050000000000000    6.750000000000000    0.001412052543661    0.000903693182521    0.001620237893504
    29    4.050000000000000    6.750000000000000    4.050000000000000    0.001412027501105    0.001620209148558    0.000903712003005
    30    4.050000000000000    6.750000000000000    9.449999999999999   -0.001307634752599    0.001541026180651    0.001018453446356
    31    4.050000000000000    9.449999999999999    1.350000000000000    0.001106504101605   -0.001671430637190   -0.000848488641938
    32    4.050000000000000    9.449999999999999    6.750000000000000   -0.001307654652947    0.001018401304361    0.001540876696647
    33    5.400000000000000    0.000000000000000    0.000000000000000    0.003132221291252    0.000239367291532    0.000239668624957
    34    5.400000000000000    0.000000000000000    5.400000000000000   -0.004279430962018   -0.000224279074424    0.000224527648789
    35    5.400000000000000    2.700000000000000    2.700000000000000   -0.003122762866984    0.000237548955142    0.000237196508164
    36    5.400000000000000    2.700000000000000    8.100000000000000    0.004291183428395   -0.000253831244514    0.000254737918737
    37    5.400000000000000    5.400000000000000    0.000000000000000   -0.004279372443684    0.000225425992635   -0.000223896185571
    38    5.400000000000000    5.400000000000000    5.400000000000000    0.001852240513852   -0.000255311686375   -0.000255200820357
    39    5.400000000000000    8.100000000000000    2.700000000000000    0.004291120230651    0.000253879941229   -0.000254142193869
    40    5.400000000000000    8.100000000000000    8.100000000000000   -0.001809592218274   -0.000219272260158   -0.000219405957582
    41    6.750000000000000    1.350000000000000    1.350000000000000   -0.000104156206909    0.000430523703313    0.000430416436841
    42    6.750000000000000    1.350000000000000    6.750000000000000   -0.000119962327762    0.001378249978193   -0.003698932944559
    43    6.750000000000000    4.050000000000000    4.050000000000000    0.000310543120710   -0.000489376640912   -0.000489686921780
    44    6.750000000000000    4.050000000000000    9.449999999999999   -0.000120865402440    0.001152786601702    0.001169888302017
    45    6.750000000000000    6.750000000000000    1.350000000000000   -0.000119963201938   -0.003698797293096    0.001378270804138
    46    6.750000000000000    6.750000000000000    6.750000000000000    0.000034825247918    0.000541275975484    0.000541342515663
    47    6.750000000000000    9.449999999999999    4.050000000000000   -0.000120872755798    0.001169377783545    0.001152227077982
    48    6.750000000000000    9.449999999999999    9.449999999999999   -0.000410016472496   -0.000481819342593   -0.000481505565023
    49    8.100000000000000    0.000000000000000    2.700000000000000   -0.000620135601313   -0.016227810344832   -0.015244264987374
    50    8.100000000000000    0.000000000000000    8.100000000000000    0.009114608177418    0.002478942972682    0.014641238182624
    51    8.100000000000000    2.700000000000000    0.000000000000000   -0.000620080682525   -0.015244104241932   -0.016227382718763
    52    8.100000000000000    2.700000000000000    5.400000000000000   -0.009742187331395    0.002319325886089    0.015402437987520
    53    8.100000000000000    5.400000000000000    2.700000000000000   -0.009742451332386    0.015403132854171    0.002318683881343
    54    8.100000000000000    5.400000000000000    8.100000000000000   -0.000019532010952   -0.001726924529853   -0.001641284387739
    55    8.100000000000000    8.100000000000000    0.000000000000000    0.009114319288138    0.014640573963536    0.002479625703720
    56    8.100000000000000    8.100000000000000    5.400000000000000   -0.000019556642131   -0.001641598628107   -0.001727221286712
    57    9.449999999999999    1.350000000000000    4.050000000000000   -0.126309671026618   -0.102298816936152    0.100883776615018
    58    9.449999999999999    1.350000000000000    9.449999999999999    0.112214187220387   -0.083209388989279    0.082061984171696
    59    9.449999999999999    4.050000000000000    1.350000000000000   -0.126309651897602    0.100886435445406   -0.102300865437800
    60    9.449999999999999    4.050000000000000    6.750000000000000    0.003310702724430    0.002198179976169   -0.001014678808120
    61    9.449999999999999    6.750000000000000    4.050000000000000    0.003310744530586   -0.001015771835984    0.002198783311506
    62    9.449999999999999    6.750000000000000    9.449999999999999   -0.003383537378686   -0.000826888691789    0.002205281057739
    63    9.449999999999999    9.449999999999999    1.350000000000000    0.112214177810145    0.082059513443299   -0.083207414946812
    64    9.449999999999999    9.449999999999999    6.750000000000000   -0.003383499737719    0.002205754449465   -0.000827991438428
