ITEM: TIMESTEP
0
ITEM: NUMBER OF ATOMS
64
ITEM: BOX BOUNDS xy xz yz pp pp pp
0.0000000000000000e+00 1.0800000000000001e+01 0.0000000000000000e+00
0.0000000000000000e+00 1.0800000000000001e+01 0.0000000000000000e+00
0.0000000000000000e+00 1.0800000000000001e+01 0.0000000000000000e+00
ITEM: ATOMS id xu yu zu fx fy fz
     1    0.010000000000000    0.000000000000000    0.000000000000000   -0.131827019036734   -0.000000170104261    0.000000017432087
     2    0.000000000000000    0.000000000000000    5.400000000000000   -0.000832234326181    0.000000065254627   -0.000000011775658
     3    0.000000000000000    2.700000000000000    2.700000000000000   -0.004029687979045    0.000117052351905    0.000117521989818
     4    0.000000000000000    2.700000000000000    8.100000000000000   -0.004007221052524   -0.000114918078217    0.000114535703585
     5    0.000000000000000    5.400000000000000    0.000000000000000   -0.000832233297740    0.000000062632101   -0.000000007404780
     6    0.000000000000000    5.400000000000000    5.400000000000000   -0.001878414715678   -0.000000113128590    0.000000012495567
     7    0.000000000000000    8.100000000000000    2.700000000000000   -0.004007216527380    0.000114933813376   -0.000115251704713
     8    0.000000000000000    8.100000000000000    8.100000000000000   -0.004029691321481   -0.000117233563336   -0.000116782848751
     9    1.350000000000000    1.350000000000000    1.350000000000000    0.029614842916492    0.023300771901587    0.023300284985853
    10    1.350000000000000    1.350000000000000    6.750000000000000   -0.000625095981435    0.000371423579745    0.000059805428902
    11    1.350000000000000    4.050000000000000    4.050000000000000    0.000202913249035   -0.000186701253655   -0.000186985206415
    12    1.350000000000000    4.050000000000000    9.449999999999999   -0.000625099992358   -0.000059736163351   -0.000371440600456
    13    1.350000000000000    6.750000000000000    1.350000000000000   -0.000625096444234    0.000059834790913    0.000371442863028
    14    1.350000000000000    6.750000000000000    6.750000000000000    0.000202911346417    0.000186882413665    0.000186576452252
    15    1.350000000000000    9.449999999999999    4.050000000000000   -0.000625095467214   -0.000371426819337   -0.000059728141506
    16    1.350000000000000    9.449999999999999    9.449999999999999    0.029614842710804   -0.023300655481984   -0.023301175873496
    17    2.700000000000000    0.000000000000000    2.700000000000000    0.003043529556855   -0.000115225119494    0.003840181907699
    18    2.700000000000000    0.000000000000000    8.100000000000000    0.003043541383935    0.000115207738829   -0.003840593284388
    19    2.700000000000000    2.700000000000000    0.000000000000000    0.003043578510681    0.003840383687965   -0.000115444537536
    20    2.700000000000000    2.700000000000000    5.400000000000000    0.000668450816477   -0.000489313237480   -0.000059752412731
    21    2.700000000000000    5.400000000000000    2.700000000000000    0.000668562299560   -0.000059551815172   -0.000489495065976
    22    2.700000000000000    5.400000000000000    8.100000000000000    0.000668538079757    0.000059671217257    0.000489162673611
    23    2.700000000000000    8.100000000000000    0.000000000000000    0.003043497932272   -0.003840365278858    0.000114971197232
    24    2.700000000000000    8.100000000000000    5.400000000000000    0.000668643186502    0.000489391759005    0.000059470979653
    25    4.050000000000000    1.350000000000000    4.050000000000000    0.000214111436744   -0.000185463369774   -0.000459120759573
    26    4.050000000000000    1.350000000000000    9.449999999999999    0.000466881072288   -0.000054648924943    0.000054483500091
    27    4.050000000000000    4.050000000000000    1.350000000000000    0.000214111950965   -0.000458986445084   -0.000185564311330
    28    4.050000000000000    4.050000000000000    6.750000000000000    0.000552008741891    0.000064710067482   -0.000064822321897
    29    4.050000000000000    6.750000000000000    4.050000000000000    0.000552004782391   -0.000064684150751    0.000064618587591
    30    4.050000000000000    6.750000000000000    9.449999999999999    0.000214116321842    0.000459021463525    0.000185260921021
    31    4.050000000000000    9.449999999999999    1.350000000000000    0.000466881689353    0.000054559656201   -0.000054670882173
    32    4.050000000000000    9.449999999999999    6.750000000000000    0.000214112310920    0.000185380580216    0.000458874807735
    33    5.400000000000000    0.000000000000000    0.000000000000000    0.001348064802223    0.000000058775445   -0.000000004987942
    34    5.400000000000000    0.000000000000000    5.400000000000000   -0.000510579406866   -0.000000112974323   -0.000000017946308
    35    5.400000000000000    2.700000000000000    2.700000000000000    0.000559306358675    0.000056029093736    0.000055916222257
    36    5.400000000000000    2.700000000000000    8.100000000000000    0.000558683277257   -0.000064011344175    0.000064102824067
    37    5.400000000000000    5.400000000000000    0.000000000000000   -0.000510571539287    0.000000141256471    0.000000020723101
    38    5.400000000000000    5.400000000000000    5.400000000000000    0.001016404687598    0.000000092868288   -0.000000010335839
    39    5.400000000000000    8.100000000000000    2.700000000000000    0.000558679934821    0.000064071250906   -0.000063941872937
    40    5.400000000000000    8.100000000000000    8.100000000000000    0.000559308929779   -0.000055926198141   -0.000056084886699
    41    6.750000000000000    1.350000000000000    1.350000000000000    0.000457539736111    0.000051822869930    0.000052002950076
    42    6.750000000000000    1.350000000000000    6.750000000000000    0.000220697423277    0.000160891737265   -0.000449736177421
    43    6.750000000000000    4.050000000000000    4.050000000000000    0.000553054615702   -0.000065148646455   -0.000065027084644
    44    6.750000000000000    4.050000000000000    9.449999999999999    0.000220701177089    0.000449815624545   -0.000160827099703
    45    6.750000000000000    6.750000000000000    1.350000000000000    0.000220700200070   -0.000449843341049    0.000161165354186
    46    6.750000000000000    6.750000000000000    6.750000000000000    0.000553058318093    0.000065118410269    0.000065227527936
    47    6.750000000000000    9.449999999999999    4.050000000000000    0.000220699480161   -0.000161060144597    0.000449969685115
    48    6.750000000000000    9.449999999999999    9.449999999999999    0.000457541278774   -0.000051963252225   -0.000051788314288
    49    8.100000000000000    0.000000000000000    2.700000000000000    0.003002273977060   -0.000117818181034   -0.003783048010441
    50    8.100000000000000    0.000000000000000    8.100000000000000    0.003002264052597    0.000117669159829    0.003783478464724
    51    8.100000000000000    2.700000000000000    0.000000000000000    0.003002236541781   -0.003783347338405   -0.000117484914494
    52    8.100000000000000    2.700000000000000    5.400000000000000    0.000673929479806    0.000476201788209   -0.000060977441090
    53    8.100000000000000    5.400000000000000    2.700000000000000    0.000673824115951   -0.000061080079574    0.000476390095889
    54    8.100000000000000    5.400000000000000    8.100000000000000    0.000673849518462    0.000061127696426   -0.000476061920135
    55    8.100000000000000    8.100000000000000    0.000000000000000    0.003002306887195    0.003783236112432    0.000117985097126
    56    8.100000000000000    8.100000000000000    5.400000000000000    0.000673737778269   -0.000476213718133    0.000061230540598
    57    9.449999999999999    1.350000000000000    4.050000000000000   -0.000618906099232   -0.000381883911940    0.000055237502141
    58    9.449999999999999    1.350000000000000    9.449999999999999    0.028713612337678   -0.022101836240101    0.022102209461603
    59    9.449999999999999    4.050000000000000    1.350000000000000   -0.000618907281940    0.000055347545406   -0.000381868845269
    60    9.449999999999999    4.050000000000000    6.750000000000000    0.000213356509097    0.000177478393965   -0.000177274299704
    61    9.449999999999999    6.750000000000000    4.050000000000000    0.000213361548461   -0.000177400232394    0.000177641504822
    62    9.449999999999999    6.750000000000000    9.449999999999999   -0.000618909904466   -0.000055220070054    0.000381873010458
    63    9.449999999999999    9.449999999999999    1.350000000000000    0.028713613109010    0.022101719254855   -0.022101319859512
    64    9.449999999999999    9.449999999999999    6.750000000000000   -0.000618906099232    0.000381883963362   -0.000055351813439
