ITEM: TIMESTEP
0
ITEM: NUMBER OF ATOMS
64
ITEM: BOX BOUNDS xy xz yz pp pp pp
0.0000000000000000e+00 1.0800000000000001e+01 0.0000000000000000e+00
0.0000000000000000e+00 1.0800000000000001e+01 0.0000000000000000e+00
0.0000000000000000e+00 1.0800000000000001e+01 0.0000000000000000e+00
ITEM: ATOMS id xu yu zu fx fy fz
     1   -0.040000000000000    0.000000000000000    0.000000000000000    0.623814692942422    0.065447895640548    0.065447975396204
     2    0.000000000000000    0.000000000000000    5.400000000000000    0.000894168989406    0.001508933553816    0.000149649480828
     3    0.000000000000000    2.700000000000000    2.700000000000000    0.125140092696937   -0.081977738339449   -0.081975018676733
     4    0.000000000000000    2.700000000000000    8.100000000000000    0.013797676856407   -0.001086714568845   -0.000573464453088
     5    0.000000000000000    5.400000000000000    0.000000000000000    0.000894123583704    0.000148283401686    0.001508168598862
     6    0.000000000000000    5.400000000000000    5.400000000000000    0.008440441590373    0.000737337540066    0.000739130936744
     7    0.000000000000000    8.100000000000000    2.700000000000000    0.013797682564258   -0.000572730351385   -0.001082956179987
     8    0.000000000000000    8.100000000000000    8.100000000000000    0.016602815781413   -0.000347410956735   -0.000350490676899
     9    1.390000000000000    1.350000000000000    1.350000000000000   -0.623815456611824   -0.065443937425464   -0.065441827371579
    10    1.350000000000000    1.350000000000000    6.750000000000000   -0.000894119984158   -0.001509593967669   -0.000150614570541
    11    1.350000000000000    4.050000000000000    4.050000000000000   -0.016596815029643    0.000346805770203    0.000348711369873
    12    1.350000000000000    4.050000000000000    9.449999999999999   -0.013803402602860    0.000570655521630    0.001088260779554
    13    1.350000000000000    6.750000000000000    1.350000000000000   -0.000894091033523   -0.000150079060936   -0.001508428948884
    14    1.350000000000000    6.750000000000000    6.750000000000000   -0.008440451000615   -0.000738631628287   -0.000738897994694
    15    1.350000000000000    9.449999999999999    4.050000000000000   -0.013803440655204    0.001089108421223    0.000574534855234
    16    1.350000000000000    9.449999999999999    9.449999999999999   -0.125133948888923    0.081976193877090    0.081973966889382
    17    2.700000000000000    0.000000000000000    2.700000000000000    0.112011732707783   -0.100054084185401    0.085863090796053
    18    2.700000000000000    0.000000000000000    8.100000000000000   -0.014305598975547   -0.001977050915900    0.015082176246786
    19    2.700000000000000    2.700000000000000    0.000000000000000    0.112011587131857    0.085861854146302   -0.100056236611085
    20    2.700000000000000    2.700000000000000    5.400000000000000   -0.005175364346045    0.003324500247174   -0.000001009826929
    21    2.700000000000000    5.400000000000000    2.700000000000000   -0.005175820717060   -0.000003468471136    0.003327620950741
    22    2.700000000000000    5.400000000000000    8.100000000000000   -0.001795816549916   -0.000906123184626   -0.001215311076255
    23    2.700000000000000    8.100000000000000    0.000000000000000   -0.014305546473597    0.015083223046195   -0.001977289154426
    24    2.700000000000000    8.100000000000000    5.400000000000000   -0.001796194965049   -0.001213203233520   -0.000904890597220
    25    4.050000000000000    1.350000000000000    4.050000000000000    0.011762196412365    0.001166552294175    0.017787710950797
    26    4.050000000000000    1.350000000000000    9.449999999999999    0.010571008156651   -0.000198487710031   -0.015933879591864
    27    4.050000000000000    4.050000000000000    1.350000000000000    0.011762079221431    0.017785684354958    0.001166601505111
    28    4.050000000000000    4.050000000000000    6.750000000000000    0.000435701547438   -0.002222370468175    0.000502017732360
    29    4.050000000000000    6.750000000000000    4.050000000000000    0.000435294438781    0.000502787778101   -0.002220213105971
    30    4.050000000000000    6.750000000000000    9.449999999999999    0.001880131493447   -0.002117582335249    0.001311802461263
    31    4.050000000000000    9.449999999999999    1.350000000000000    0.010571125347585   -0.015930665505789   -0.000198807401141
    32    4.050000000000000    9.449999999999999    6.750000000000000    0.001879690291948    0.001314540584508   -0.002118408893863
    33    5.400000000000000    0.000000000000000    0.000000000000000   -0.003486769684972    0.000180280074908    0.000178639813203
    34    5.400000000000000    0.000000000000000    5.400000000000000    0.002964013425252    0.000738296099175   -0.001768911640246
    35    5.400000000000000    2.700000000000000    2.700000000000000   -0.000357255920825   -0.000413500010303   -0.000411266132035
    36    5.400000000000000    2.700000000000000    8.100000000000000   -0.001333109459786   -0.000521091315414    0.001546784065908
    37    5.400000000000000    5.400000000000000    0.000000000000000    0.002963947502137   -0.001770159191479    0.000735664985291
    38    5.400000000000000    5.400000000000000    5.400000000000000   -0.001892116953296    0.000265522055809    0.000266589578318
    39    5.400000000000000    8.100000000000000    2.700000000000000   -0.001333094341693    0.001549756725289   -0.000520013302799
    40    5.400000000000000    8.100000000000000    8.100000000000000   -0.000044439789639   -0.000047130501721   -0.000049476634403
    41    6.750000000000000    1.350000000000000    1.350000000000000    0.003486426288281   -0.000180710169237   -0.000180223099237
    42    6.750000000000000    1.350000000000000    6.750000000000000   -0.002963819615409   -0.000734842591866    0.001767446419322
    43    6.750000000000000    4.050000000000000    4.050000000000000    0.000043944080728    0.000046610367319    0.000049213404744
    44    6.750000000000000    4.050000000000000    9.449999999999999    0.001333918534890   -0.001549854375830    0.000517196195229
    45    6.750000000000000    6.750000000000000    1.350000000000000   -0.002963769633141    0.001768110278455   -0.000735568466035
    46    6.750000000000000    6.750000000000000    6.750000000000000    0.001892432427795   -0.000266748061188   -0.000267779331126
    47    6.750000000000000    9.449999999999999    4.050000000000000    0.001333918637734    0.000520813430460   -0.001548164748922
    48    6.750000000000000    9.449999999999999    9.449999999999999    0.000356494513994    0.000415363083908    0.000412609071238
    49    8.100000000000000    0.000000000000000    2.700000000000000   -0.010571217855919    0.000196073648773    0.015935239860310
    50    8.100000000000000    0.000000000000000    8.100000000000000   -0.011762268094753   -0.001161290992004   -0.017789196483445
    51    8.100000000000000    2.700000000000000    0.000000000000000   -0.010571129409930    0.015933810377736    0.000193856276994
    52    8.100000000000000    2.700000000000000    5.400000000000000   -0.001880306225696   -0.001314271338465    0.002118255501779
    53    8.100000000000000    5.400000000000000    2.700000000000000   -0.001879908167327    0.002116958173967   -0.001312105543039
    54    8.100000000000000    5.400000000000000    8.100000000000000   -0.000435301380763   -0.000504539728577    0.002219257426500
    55    8.100000000000000    8.100000000000000    0.000000000000000   -0.011762396547125   -0.017786340037979   -0.001163269302504
    56    8.100000000000000    8.100000000000000    5.400000000000000   -0.000434842901442    0.002221837992473   -0.000503479970803
    57    9.449999999999999    1.350000000000000    4.050000000000000    0.014305589976682    0.001973815901036   -0.015080810836132
    58    9.449999999999999    1.350000000000000    9.449999999999999   -0.112011928677353    0.100062979332136   -0.085868037343634
    59    9.449999999999999    4.050000000000000    1.350000000000000    0.014305695957602   -0.015084630417272    0.001975583586671
    60    9.449999999999999    4.050000000000000    6.750000000000000    0.001795401522259    0.001212719865910    0.000904069386504
    61    9.449999999999999    6.750000000000000    4.050000000000000    0.001795832285075    0.000904723064064    0.001215312670340
    62    9.449999999999999    6.750000000000000    9.449999999999999    0.005175785698619    0.000000854789339   -0.003325146365687
    63    9.449999999999999    9.449999999999999    1.350000000000000   -0.112012062529044   -0.085864472558931    0.100062861832669
    64    9.449999999999999    9.449999999999999    6.750000000000000    0.005176162262557   -0.003323427839567    0.000001195357816
