ITEM: TIMESTEP
0
ITEM: NUMBER OF ATOMS
64
ITEM: BOX BOUNDS xy xz yz pp pp pp
0.0000000000000000e+00 1.0800000000000001e+01 0.0000000000000000e+00
0.0000000000000000e+00 1.0800000000000001e+01 0.0000000000000000e+00
0.0000000000000000e+00 1.0800000000000001e+01 0.0000000000000000e+00
ITEM: ATOMS id xu yu zu fx fy fz
     1   -0.040000000000000    0.000000000000000    0.000000000000000    0.446018686760169   -0.105477601594937   -0.079559208656150
     2    0.000000000000000    0.000000000000000    5.400000000000000    0.001929141215308    0.002540990970184   -0.000317438976734
     3    0.000000000000000    2.700000000000000    2.700000000000000    0.097676348877206   -0.110305622501446   -0.082337312367919
     4    0.000000000000000    2.700000000000000    8.100000000000000    0.017801456794345    0.002962559414343   -0.000643319197449
     5    0.000000000000000    5.400000000000000    0.000000000000000    0.003160675599801   -0.001824143383114   -0.000179842730065
     6    0.000000000000000    5.400000000000000    5.400000000000000    0.007090422851718   -0.000820487207702    0.001870908633756
     7    0.000000000000000    8.100000000000000    2.700000000000000    0.016479951088262   -0.002372288680826    0.000254532641769
     8    0.000000000000000    8.100000000000000    8.100000000000000    0.016649216552309   -0.000555558151391    0.002191821995166
     9    1.350000000000000    1.310000000000000    1.350000000000000   -0.128694261978766    0.427126741890028   -0.102964336282340
    10    1.350000000000000    1.350000000000000    6.750000000000000    0.002450607911951    0.001741479088550   -0.000127491755311
    11    1.350000000000000    4.050000000000000    4.050000000000000   -0.001378767798601   -0.011118370707367   -0.014211103487393
    12    1.350000000000000    4.050000000000000    9.449999999999999    0.002999075574721   -0.011646769718293    0.016418354422410
    13    1.350000000000000    6.750000000000000    1.350000000000000    0.002470297171642   -0.005526664046627   -0.001591185391826
    14    1.350000000000000    6.750000000000000    6.750000000000000   -0.000792332689915    0.001253221237967   -0.000783128187909
    15    1.350000000000000    9.449999999999999    4.050000000000000    0.001962687441675   -0.010865032652082    0.015907619566577
    16    1.350000000000000    9.449999999999999    9.449999999999999   -0.109494014191100    0.069657678832102    0.066345316305574
    17    2.700000000000000    0.000000000000000    2.700000000000000    0.088655866154610   -0.123062336201799    0.085661073114072
    18    2.700000000000000    0.000000000000000    8.100000000000000   -0.010329448998695    0.002081256179480    0.015048140327892
    19    2.700000000000000    2.700000000000000    0.000000000000000   -0.093563190048175   -0.124547976476168    0.082148839057752
    20    2.700000000000000    2.700000000000000    5.400000000000000   -0.004309982674619    0.004294614669940    0.000370755246891
    21    2.700000000000000    5.400000000000000    2.700000000000000   -0.002509055077868   -0.001565553744433    0.002035736783141
    22    2.700000000000000    5.400000000000000    8.100000000000000   -0.002075281190175   -0.001056437604451   -0.003702266278452
    23    2.700000000000000    8.100000000000000    0.000000000000000   -0.011972847091287    0.012863120034910   -0.000227423534995
    24    2.700000000000000    8.100000000000000    5.400000000000000   -0.003477908991035   -0.002744284279858   -0.002070796464350
    25    4.050000000000000    1.350000000000000    4.050000000000000   -0.000218835326692    0.016923267629599    0.002448792043821
    26    4.050000000000000    1.350000000000000    9.449999999999999   -0.002286157457789    0.016143509285264    0.000264137567560
    27    4.050000000000000    4.050000000000000    1.350000000000000   -0.015837273998403   -0.010067620334227    0.000026337004150
    28    4.050000000000000    4.050000000000000    6.750000000000000   -0.000416916236599   -0.002988554307354    0.000059865695587
    29    4.050000000000000    6.750000000000000    4.050000000000000   -0.002078385747207   -0.001944073366384   -0.000115816833440
    30    4.050000000000000    6.750000000000000    9.449999999999999   -0.001079678741902   -0.004138076789290   -0.000323588646866
    31    4.050000000000000    9.449999999999999    1.350000000000000    0.013942728585664   -0.012657382839168   -0.000297379940821
    32    4.050000000000000    9.449999999999999    6.750000000000000   -0.002816267178678   -0.003250253131054   -0.002108097274341
    33    5.400000000000000    0.000000000000000    0.000000000000000   -0.005679418701551    0.002523081017519   -0.001412081031497
    34    5.400000000000000    0.000000000000000    5.400000000000000    0.001401904754906   -0.000908025030484   -0.000618773584516
    35    5.400000000000000    2.700000000000000    2.700000000000000   -0.002120114667306    0.002163161278363   -0.001900319598797
    36    5.400000000000000    2.700000000000000    8.100000000000000   -0.001522231151038   -0.000612636718484   -0.000924998946915
    37    5.400000000000000    5.400000000000000    0.000000000000000    0.003902834423246   -0.000821547325430   -0.000626833430883
    38    5.400000000000000    5.400000000000000    5.400000000000000   -0.004398437764575   -0.002246609399787   -0.000303577279226
    39    5.400000000000000    8.100000000000000    2.700000000000000   -0.004074545933089   -0.001115259123155   -0.000578441339700
    40    5.400000000000000    8.100000000000000    8.100000000000000   -0.002029651904838   -0.001878511080667    0.000053949173194
    41    6.750000000000000    1.350000000000000    1.350000000000000   -0.001885000393678    0.003081852175121   -0.000248932468051
    42    6.750000000000000    1.350000000000000    6.750000000000000   -0.000896648870934    0.006905800747274    0.001827461444647
    43    6.750000000000000    4.050000000000000    4.050000000000000   -0.002402912435769   -0.002464697872099    0.002079404984377
    44    6.750000000000000    4.050000000000000    9.449999999999999   -0.000671395862197   -0.004519031349867   -0.001055946677794
    45    6.750000000000000    6.750000000000000    1.350000000000000   -0.000895398800019    0.003851083389971   -0.000753166749436
    46    6.750000000000000    6.750000000000000    6.750000000000000   -0.002189554743964   -0.004323182004235   -0.000236518559379
    47    6.750000000000000    9.449999999999999    4.050000000000000   -0.001134802241278   -0.001890007619321   -0.003843589803617
    48    6.750000000000000    9.449999999999999    9.449999999999999   -0.001665911761789   -0.002407137737169    0.002242249732476
    49    8.100000000000000    0.000000000000000    2.700000000000000   -0.012107853875961    0.002937854238676    0.017097818718463
    50    8.100000000000000    0.000000000000000    8.100000000000000   -0.011685715777932   -0.001272062598880   -0.014907141738890
    51    8.100000000000000    2.700000000000000    0.000000000000000   -0.012592787700048    0.018183717321644    0.001952202375457
    52    8.100000000000000    2.700000000000000    5.400000000000000   -0.003382982277265   -0.002843317664274    0.000978679491130
    53    8.100000000000000    5.400000000000000    2.700000000000000   -0.004528153062314   -0.000568167463989   -0.001408906848960
    54    8.100000000000000    5.400000000000000    8.100000000000000   -0.002342547277459   -0.002509659955867    0.002306796997633
    55    8.100000000000000    8.100000000000000    0.000000000000000   -0.010432264066174   -0.016391634837939    0.000413990577005
    56    8.100000000000000    8.100000000000000    5.400000000000000   -0.002900407081428   -0.000174098420239    0.000005222324229
    57    9.449999999999999    1.350000000000000    4.050000000000000    0.002974020214647    0.017396404610049   -0.000745269653971
    58    9.449999999999999    1.350000000000000    9.449999999999999   -0.124126790920863    0.116976155377321   -0.101084564537808
    59    9.449999999999999    4.050000000000000    1.350000000000000    0.017330143549603   -0.012055842955462    0.002004332183819
    60    9.449999999999999    4.050000000000000    6.750000000000000   -0.002705258413141   -0.003365762203308    0.000898653046744
    61    9.449999999999999    6.750000000000000    4.050000000000000   -0.000611330546072   -0.001592907620337   -0.000954576210982
    62    9.449999999999999    6.750000000000000    9.449999999999999    0.002348651027668   -0.001949408150716   -0.001580820139069
    63    9.449999999999999    9.449999999999999    1.350000000000000   -0.139475575515030   -0.113125534529015    0.101282437496798
    64    9.449999999999999    9.449999999999999    6.750000000000000    0.004543580562347   -0.004037420163879    0.000548765550915
