ITEM: TIMESTEP
0
ITEM: NUMBER OF ATOMS
64
ITEM: BOX BOUNDS xy xz yz pp pp pp
0.0000000000000000e+00 1.0800000000000001e+01 0.0000000000000000e+00
0.0000000000000000e+00 1.0800000000000001e+01 0.0000000000000000e+00
0.0000000000000000e+00 1.0800000000000001e+01 0.0000000000000000e+00
ITEM: ATOMS id xu yu zu fx fy fz
     1    0.040000000000000    0.000000000000000    0.000000000000000   -0.427129089873906    0.128692719470446    0.102971511720247
     2    0.000000000000000    0.000000000000000    5.400000000000000   -0.001741603427154   -0.002450027202331    0.000126783878872
     3    0.000000000000000    2.700000000000000    2.700000000000000   -0.116975094282572    0.124123546547179    0.101080417089446
     4    0.000000000000000    2.700000000000000    8.100000000000000   -0.017393119818606   -0.002973845893774    0.000745248776604
     5    0.000000000000000    5.400000000000000    0.000000000000000   -0.003081118690483    0.001885515540137    0.000247164525305
     6    0.000000000000000    5.400000000000000    5.400000000000000   -0.006903338657787    0.000895808839734   -0.001828576429742
     7    0.000000000000000    8.100000000000000    2.700000000000000   -0.016140664975411    0.002288799370311   -0.000267248192398
     8    0.000000000000000    8.100000000000000    8.100000000000000   -0.016926118212947    0.000217972875462   -0.002442741926848
     9    1.350000000000000    1.390000000000000    1.350000000000000    0.105478955332778   -0.446019074894075    0.079552892378459
    10    1.350000000000000    1.350000000000000    6.750000000000000   -0.002541514292755   -0.001929196854005    0.000318520023252
    11    1.350000000000000    4.050000000000000    4.050000000000000    0.001275517751695    0.011686568561809    0.014901815542047
    12    1.350000000000000    4.050000000000000    9.449999999999999   -0.002938014469896    0.012107284684889   -0.017098314890173
    13    1.350000000000000    6.750000000000000    1.350000000000000   -0.002523625680256    0.005680251533659    0.001412171431524
    14    1.350000000000000    6.750000000000000    6.750000000000000    0.000909073372555   -0.001399431969625    0.000618523416066
    15    1.350000000000000    9.449999999999999    4.050000000000000   -0.002084209607000    0.010329437942946   -0.015047982307821
    16    1.350000000000000    9.449999999999999    9.449999999999999    0.123063201429821   -0.088650884742855   -0.085659475275588
    17    2.700000000000000    0.000000000000000    2.700000000000000   -0.069662201456004    0.109493070544397   -0.066346482198534
    18    2.700000000000000    0.000000000000000    8.100000000000000    0.010865157299219   -0.001960092991739   -0.015907575703538
    19    2.700000000000000    2.700000000000000    0.000000000000000    0.113125868772576    0.139475391321117   -0.101287479226661
    20    2.700000000000000    2.700000000000000    5.400000000000000    0.004036735941600   -0.004543406241475   -0.000549299826391
    21    2.700000000000000    5.400000000000000    2.700000000000000    0.002408972940003    0.001667454115843   -0.002245402729112
    22    2.700000000000000    5.400000000000000    8.100000000000000    0.001890077039137    0.001135446097219    0.003842575091590
    23    2.700000000000000    8.100000000000000    0.000000000000000    0.012657339130395   -0.013940682757965    0.000297490138352
    24    2.700000000000000    8.100000000000000    5.400000000000000    0.003249934982607    0.002818226308740    0.002106652467985
    25    4.050000000000000    1.350000000000000    4.050000000000000    0.000556501026763   -0.016646278140037   -0.002197515191439
    26    4.050000000000000    1.350000000000000    9.449999999999999    0.002369183043930   -0.016483026334704   -0.000251199924941
    27    4.050000000000000    4.050000000000000    1.350000000000000    0.016391576730981    0.010431914961631   -0.000416657274973
    28    4.050000000000000    4.050000000000000    6.750000000000000    0.000174169845517    0.002901305271007   -0.000006871739066
    29    4.050000000000000    6.750000000000000    4.050000000000000    0.001877313511702    0.002030408066616   -0.000055216676196
    30    4.050000000000000    6.750000000000000    9.449999999999999    0.001114725876121    0.004076317629646    0.000578491013435
    31    4.050000000000000    9.449999999999999    1.350000000000000   -0.012865252354558    0.011972904324069    0.000226950194692
    32    4.050000000000000    9.449999999999999    6.750000000000000    0.002742583340091    0.003478663250195    0.002072042267232
    33    5.400000000000000    0.000000000000000    0.000000000000000    0.005525866747180   -0.002469931663454    0.001590862461125
    34    5.400000000000000    0.000000000000000    5.400000000000000   -0.001255410121910    0.000791384312379    0.000783351616874
    35    5.400000000000000    2.700000000000000    2.700000000000000    0.001948643967093   -0.002348548492028    0.001579358363425
    36    5.400000000000000    2.700000000000000    8.100000000000000    0.001592257696590    0.000610424077537    0.000955218215728
    37    5.400000000000000    5.400000000000000    0.000000000000000   -0.003850990058884    0.000896655812916    0.000752912672908
    38    5.400000000000000    5.400000000000000    5.400000000000000    0.004323393914652    0.002190274961703    0.000234621495776
    39    5.400000000000000    8.100000000000000    2.700000000000000    0.004136649877821    0.001080460049079    0.000323151302023
    40    5.400000000000000    8.100000000000000    8.100000000000000    0.001943622960331    0.002079735268437    0.000116776523834
    41    6.750000000000000    1.350000000000000    1.350000000000000    0.001823629162252   -0.003161592507020    0.000181447973330
    42    6.750000000000000    1.350000000000000    6.750000000000000    0.000821402983635   -0.007092753609197   -0.001869990646674
    43    6.750000000000000    4.050000000000000    4.050000000000000    0.002509834945227    0.002341006723179   -0.002308680125851
    44    6.750000000000000    4.050000000000000    9.449999999999999    0.000568933138853    0.004527390575620    0.001410987643678
    45    6.750000000000000    6.750000000000000    1.350000000000000    0.000820389814270   -0.003902800844624    0.000626859553303
    46    6.750000000000000    6.750000000000000    6.750000000000000    0.002246074147292    0.004398489289505    0.000305197949117
    47    6.750000000000000    9.449999999999999    4.050000000000000    0.001055930274148    0.002075377040944    0.003703077821817
    48    6.750000000000000    9.449999999999999    9.449999999999999    0.001564026868427    0.002507378049371   -0.002032561263631
    49    8.100000000000000    0.000000000000000    2.700000000000000    0.011647064161159   -0.002998773675653   -0.016417336985013
    50    8.100000000000000    0.000000000000000    8.100000000000000    0.011117611254576    0.001375015837505    0.014217054308317
    51    8.100000000000000    2.700000000000000    0.000000000000000    0.012055315210592   -0.017332839403894   -0.002000099734749
    52    8.100000000000000    2.700000000000000    5.400000000000000    0.003367966616721    0.002703566266551   -0.000900362625421
    53    8.100000000000000    5.400000000000000    2.700000000000000    0.004519919563562    0.000670734162792    0.001053577096640
    54    8.100000000000000    5.400000000000000    8.100000000000000    0.002466331448933    0.002402946837145   -0.002077672985670
    55    8.100000000000000    8.100000000000000    0.000000000000000    0.010067749095130    0.015836832796903   -0.000024117061267
    56    8.100000000000000    8.100000000000000    5.400000000000000    0.002988051296507    0.000417064640740   -0.000058493240106
    57    9.449999999999999    1.350000000000000    4.050000000000000   -0.002962741654216   -0.017804930819066    0.000643515886929
    58    9.449999999999999    1.350000000000000    9.449999999999999    0.110309354613617   -0.097677335512774    0.082341066900120
    59    9.449999999999999    4.050000000000000    1.350000000000000   -0.018181722916031    0.012593215223273   -0.001956048387550
    60    9.449999999999999    4.050000000000000    6.750000000000000    0.002845080053434    0.003380861630431   -0.000977161768256
    61    9.449999999999999    6.750000000000000    4.050000000000000    0.000613522978139    0.001522984330335    0.000924193677045
    62    9.449999999999999    6.750000000000000    9.449999999999999   -0.002163251575547    0.002120957526720    0.001902050826173
    63    9.449999999999999    9.449999999999999    1.350000000000000    0.124548354788457    0.093563018401252   -0.082143967843527
    64    9.449999999999999    9.449999999999999    6.750000000000000   -0.004294782820162    0.004310673478925   -0.000370000216400
