# Structure data of Sc (2x2x2 conventional) 

16 atoms
1 atom types

0.0 6.582449913 xlo xhi
0.0 5.7005684056 ylo yhi
0.0 10.6651449203 zlo zhi
-3.2912257156 0.0 0.0 xy xz yz

Masses

1 44.95591  # Sc

Atoms  # atomic

1 1 -2.4974211565e-07 1.9001895236 1.333143115
2 1 -2.4974211565e-07 1.9001895236 6.6657155752
3 1 -1.6456132063 4.7504738975 1.333143115
4 1 -1.6456132063 4.7504738975 6.6657155752
5 1 3.2912248055 1.9001895236 1.333143115
6 1 3.2912248055 1.9001895236 6.6657155752
7 1 1.645611849 4.7504738975 1.333143115
8 1 1.645611849 4.7504738975 6.6657155752
9 1 1.6456123978 0.9500947647 3.9994293451
10 1 1.6456123978 0.9500947647 9.3320018053
11 1 -5.0935790741e-07 3.800379053 3.9994293451
12 1 -5.0935790741e-07 3.800379053 9.3320018053
13 1 4.9368375518 0.9500947647 3.9994293451
14 1 4.9368375518 0.9500947647 9.3320018053
15 1 3.2912246446 3.800379053 3.9994293451
16 1 3.2912246446 3.800379053 9.3320018053
