# Structure data of Co (2x2x2 conventional) 

16 atoms
1 atom types

0.0 4.9439997673 xlo xhi
0.0 4.2816290656 ylo yhi
0.0 8.0422878265 zlo zhi
-2.4720004538 0.0 0.0 xy xz yz

Masses

1 58.9332  # Co

Atoms  # atomic

1 1 -1.8757800568e-07 1.4272097299 1.0052859783
2 1 -1.8757800568e-07 1.4272097299 5.0264298916
3 1 -1.2360004886 3.5680243912 1.0052859783
4 1 -1.2360004886 3.5680243912 5.0264298916
5 1 2.4719997702 1.4272097299 1.0052859783
6 1 2.4719997702 1.4272097299 5.0264298916
7 1 1.2359994692 3.5680243912 1.0052859783
8 1 1.2359994692 3.5680243912 5.0264298916
9 1 1.2359998814 0.7136048671 3.0158579349
10 1 1.2359998814 0.7136048671 7.0370018482
11 1 -3.825720114e-07 2.8544194641 3.0158579349
12 1 -3.825720114e-07 2.8544194641 7.0370018482
13 1 3.7079999134 0.7136048671 3.0158579349
14 1 3.7079999134 0.7136048671 7.0370018482
15 1 2.4719996494 2.8544194641 3.0158579349
16 1 2.4719996494 2.8544194641 7.0370018482
