# Structure data of Zn (2x2x2 conventional) 

16 atoms
1 atom types

0.0 5.2534608841 xlo xhi
0.0 4.5496302336 ylo yhi
0.0 10.4144678116 zlo zhi
-2.6267310479 0.0 0.0 xy xz yz

Masses

1 65.409  # Zn

Atoms  # atomic

1 1 1.3133651568 0.7582717299 3.9054254294
2 1 1.3133651568 0.7582717299 9.1126593351
3 1 -4.0652674271e-07 3.0330869149 3.9054254294
4 1 -4.0652674271e-07 3.0330869149 9.1126593351
5 1 3.9400957565 0.7582717299 3.9054254294
6 1 3.9400957565 0.7582717299 9.1126593351
7 1 2.6267301931 3.0330869149 3.9054254294
8 1 2.6267301931 3.0330869149 9.1126593351
9 1 -1.9932327544e-07 1.5165434552 1.3018084764
10 1 -1.9932327544e-07 1.5165434552 6.5090423822
11 1 -1.3133658021 3.7913587085 1.3018084764
12 1 -1.3133658021 3.7913587085 6.5090423822
13 1 2.6267303215 1.5165434552 1.3018084764
14 1 2.6267303215 1.5165434552 6.5090423822
15 1 1.3133647188 3.7913587085 1.3018084764
16 1 1.3133647188 3.7913587085 6.5090423822
