Disp. Num. 13 ( 0.010000 Angstrom, 97 : -x)

192 atoms
3 atom types

0.0 12.427113533 xlo xhi
0.0 13.0710363388 ylo yhi
0.0 21.2133083344 zlo zhi
0.000000    0.000000    0.000000   xy xz yz

Masses

1 55.845  # Fe
2 63.546  # Cu
3 32.065  # S

Atoms

    1   1   2.809515539400000   5.949837787100000   9.606223812200000
    2   1   2.809515539400000   5.949837787100000  20.212877979400002
    3   1   2.809515539400000  12.485355956499999   9.606223812200000
    4   1   2.809515539400000  12.485355956499999  20.212877979400002
    5   1   9.023071933100001   5.949837787100000   9.606223812200000
    6   1   9.023071933100001   5.949837787100000  20.212877979400002
    7   1   9.023071933100001  12.485355956499999   9.606223812200000
    8   1   9.023071933100001  12.485355956499999  20.212877979400002
    9   1   5.916293922700000   3.853439467000000   9.606223812200000
   10   1   5.916293922700000   3.853439467000000  20.212877979400002
   11   1   5.916293922700000  10.388957636400001   9.606223812200000
   12   1   5.916293922700000  10.388957636400001  20.212877979400002
   13   1  12.129850316400001   3.853439467000000   9.606223812200000
   14   1  12.129850316400001   3.853439467000000  20.212877979400002
   15   1  12.129850316400001  10.388957636400001   9.606223812200000
   16   1  12.129850316400001  10.388957636400001  20.212877979400002
   17   1   0.297262781700000   2.682078702400000   1.000430206500000
   18   1   0.297262781700000   2.682078702400000  11.607084522199999
   19   1   0.297262781700000   9.217596871800000   1.000430206500000
   20   1   0.297262781700000   9.217596871800000  11.607084522199999
   21   1   6.510819237500000   2.682078702400000   1.000430206500000
   22   1   6.510819237500000   2.682078702400000  11.607084522199999
   23   1   6.510819237500000   9.217596871800000   1.000430206500000
   24   1   6.510819237500000   9.217596871800000  11.607084522199999
   25   1   0.297262781700000   2.682078702400000   4.302896728600000
   26   1   0.297262781700000   2.682078702400000  14.909550895800001
   27   1   0.297262781700000   9.217596871800000   4.302896728600000
   28   1   0.297262781700000   9.217596871800000  14.909550895800001
   29   1   6.510819237500000   2.682078702400000   4.302896728600000
   30   1   6.510819237500000   2.682078702400000  14.909550895800001
   31   1   6.510819237500000   9.217596871800000   4.302896728600000
   32   1   6.510819237500000   9.217596871800000  14.909550895800001
   33   1   5.916293922700000   3.853439467000000   6.303757438600000
   34   1   5.916293922700000   3.853439467000000  16.910411605800000
   35   1   5.916293922700000  10.388957636400001   6.303757438600000
   36   1   5.916293922700000  10.388957636400001  16.910411605800000
   37   1  12.129850316400001   3.853439467000000   6.303757438600000
   38   1  12.129850316400001   3.853439467000000  16.910411605800000
   39   1  12.129850316400001  10.388957636400001   6.303757438600000
   40   1  12.129850316400001  10.388957636400001  16.910411605800000
   41   1   3.404041227100000   0.585680473800000   1.000430206500000
   42   1   3.404041227100000   0.585680473800000  11.607084522199999
   43   1   3.404041227100000   7.121198551700000   1.000430206500000
   44   1   3.404041227100000   7.121198551700000  11.607084522199999
   45   1   9.617598366399999   0.585680473800000   1.000430206500000
   46   1   9.617598366399999   0.585680473800000  11.607084522199999
   47   1   9.617598366399999   7.121198551700000   1.000430206500000
   48   1   9.617598366399999   7.121198551700000  11.607084522199999
   49   1   2.809515539400000   5.949837787100000   6.303757438600000
   50   1   2.809515539400000   5.949837787100000  16.910411605800000
   51   1   2.809515539400000  12.485355956499999   6.303757438600000
   52   1   2.809515539400000  12.485355956499999  16.910411605800000
   53   1   9.023071933100001   5.949837787100000   6.303757438600000
   54   1   9.023071933100001   5.949837787100000  16.910411605800000
   55   1   9.023071933100001  12.485355956499999   6.303757438600000
   56   1   9.023071933100001  12.485355956499999  16.910411605800000
   57   1   3.404041227100000   0.585680473800000   4.302896728600000
   58   1   3.404041227100000   0.585680473800000  14.909550895800001
   59   1   3.404041227100000   7.121198551700000   4.302896728600000
   60   1   3.404041227100000   7.121198551700000  14.909550895800001
   61   1   9.617598366399999   0.585680473800000   4.302896728600000
   62   1   9.617598366399999   0.585680473800000  14.909550895800001
   63   1   9.617598366399999   7.121198551700000   4.302896728600000
   64   1   9.617598366399999   7.121198551700000  14.909550895800001
   65   2   0.297523738700000   6.099363946500000   2.651663541800000
   66   2   0.297523738700000   6.099363946500000  13.258317709000000
   67   2   0.297523738700000  12.634882115900000   2.651663541800000
   68   2   0.297523738700000  12.634882115900000  13.258317709000000
   69   2   6.511080716400000   6.099363946500000   2.651663541800000
   70   2   6.511080716400000   6.099363946500000  13.258317709000000
   71   2   6.511080716400000  12.634882115900000   2.651663541800000
   72   2   6.511080716400000  12.634882115900000  13.258317709000000
   73   2   2.809254619700000   2.831604665700000   7.954990625400000
   74   2   2.809254619700000   2.831604665700000  18.561644792599999
   75   2   2.809254619700000   9.367123031200000   7.954990625400000
   76   2   2.809254619700000   9.367123031200000  18.561644792599999
   77   2   9.022811199800000   2.831604665700000   7.954990625400000
   78   2   9.022811199800000   2.831604665700000  18.561644792599999
   79   2   9.022811199800000   9.367123031200000   7.954990625400000
   80   2   9.022811199800000   9.367123031200000  18.561644792599999
   81   2   5.916033189400000   0.436154327500000   7.954990625400000
   82   2   5.916033189400000   0.436154327500000  18.561644792599999
   83   2   5.916033189400000   6.971672392300000   7.954990625400000
   84   2   5.916033189400000   6.971672392300000  18.561644792599999
   85   2  12.129589583100000   0.436154327500000   7.954990625400000
   86   2  12.129589583100000   0.436154327500000  18.561644792599999
   87   2  12.129589583100000   6.971672392300000   7.954990625400000
   88   2  12.129589583100000   6.971672392300000  18.561644792599999
   89   2   3.404301960300000   3.703913307600000   2.651663541800000
   90   2   3.404301960300000   3.703913307600000  13.258317709000000
   91   2   3.404301960300000  10.239431477000000   2.651663541800000
   92   2   3.404301960300000  10.239431477000000  13.258317709000000
   93   2   9.617859099700000   3.703913307600000   2.651663541800000
   94   2   9.617859099700000   3.703913307600000  13.258317709000000
   95   2   9.617859099700000  10.239431477000000   2.651663541800000
   96   2   9.617859099700000  10.239431477000000  13.258317709000000
   97   3   3.704923951200000   3.936826339400000   9.750697388000001
   98   3   3.714923951200000   3.936826339400000  20.357352191600000
   99   3   3.714923951200000  10.472344887900000   9.750697388000001
  100   3   3.714923951200000  10.472344887900000  20.357352191600000
  101   3   9.928480344900001   3.936826339400000   9.750697388000001
  102   3   9.928480344900001   3.936826339400000  20.357352191600000
  103   3   9.928480344900001  10.472344887900000   9.750697388000001
  104   3   9.928480344900001  10.472344887900000  20.357352191600000
  105   3   5.605411198500000   0.669067150100000   4.447369986200000
  106   3   5.605411198500000   0.669067150100000  15.054023835200001
  107   3   5.605411198500000   7.204585032000000   4.447369986200000
  108   3   5.605411198500000   7.204585032000000  15.054023835200001
  109   3  11.818968337799999   0.669067150100000   4.447369986200000
  110   3  11.818968337799999   0.669067150100000  15.054023835200001
  111   3  11.818968337799999   7.204585032000000   4.447369986200000
  112   3  11.818968337799999   7.204585032000000  15.054023835200001
  113   3   3.656442017100000   0.695810490500000   7.954990625400000
  114   3   3.656442017100000   0.695810490500000  18.561644792599999
  115   3   3.656442017100000   7.231328999700000   7.954990625400000
  116   3   3.656442017100000   7.231328999700000  18.561644792599999
  117   3   9.869998783600000   0.695810490500000   7.954990625400000
  118   3   9.869998783600000   0.695810490500000  18.561644792599999
  119   3   9.869998783600000   7.231328999700000   7.954990625400000
  120   3   9.869998783600000   7.231328999700000  18.561644792599999
  121   3   2.557114749400000   5.839707718100000   2.651663541800000
  122   3   2.557114749400000   5.839707718100000  13.258317709000000
  123   3   2.557114749400000  12.375225508500000   2.651663541800000
  124   3   2.557114749400000  12.375225508500000  13.258317709000000
  125   3   8.770671515900000   5.839707718100000   2.651663541800000
  126   3   8.770671515900000   5.839707718100000  13.258317709000000
  127   3   8.770671515900000  12.375225508500000   2.651663541800000
  128   3   8.770671515900000  12.375225508500000  13.258317709000000
  129   3   0.608145655000000   5.866450914700000   6.159283862800000
  130   3   0.608145655000000   5.866450914700000  16.765937393600002
  131   3   0.608145655000000  12.401968705000000   6.159283862800000
  132   3   0.608145655000000  12.401968705000000  16.765937393600002
  133   3   6.821702707300000   5.866450914700000   6.159283862800000
  134   3   6.821702707300000   5.866450914700000  16.765937393600002
  135   3   6.821702707300000  12.401968705000000   6.159283862800000
  136   3   6.821702707300000  12.401968705000000  16.765937393600002
  137   3   2.498632815300000   2.598692026100000   0.855957012500000
  138   3   2.498632815300000   2.598692026100000  11.462611582799999
  139   3   2.498632815300000   9.134210391500000   0.855957012500000
  140   3   2.498632815300000   9.134210391500000  11.462611582799999
  141   3   8.712189954599999   2.598692026100000   0.855957012500000
  142   3   8.712189954599999   2.598692026100000  11.462611582799999
  143   3   8.712189954599999   9.134210391500000   0.855957012500000
  144   3   8.712189954599999   9.134210391500000  11.462611582799999
  145   3   2.498632815300000   2.598692026100000   4.447369986200000
  146   3   2.498632815300000   2.598692026100000  15.054023835200001
  147   3   2.498632815300000   9.134210391500000   4.447369986200000
  148   3   2.498632815300000   9.134210391500000  15.054023835200001
  149   3   8.712189954599999   2.598692026100000   4.447369986200000
  150   3   8.712189954599999   2.598692026100000  15.054023835200001
  151   3   8.712189954599999   9.134210391500000   4.447369986200000
  152   3   8.712189954599999   9.134210391500000  15.054023835200001
  153   3   3.714923951200000   3.936826339400000   6.159283862800000
  154   3   3.714923951200000   3.936826339400000  16.765937393600002
  155   3   3.714923951200000  10.472344887900000   6.159283862800000
  156   3   3.714923951200000  10.472344887900000  16.765937393600002
  157   3   9.928480344900001   3.936826339400000   6.159283862800000
  158   3   9.928480344900001   3.936826339400000  16.765937393600002
  159   3   9.928480344900001  10.472344887900000   6.159283862800000
  160   3   9.928480344900001  10.472344887900000  16.765937393600002
  161   3   0.608145655000000   5.866450914700000   9.750697388000001
  162   3   0.608145655000000   5.866450914700000  20.357352191600000
  163   3   0.608145655000000  12.401968705000000   9.750697388000001
  164   3   0.608145655000000  12.401968705000000  20.357352191600000
  165   3   6.821702707300000   5.866450914700000   9.750697388000001
  166   3   6.821702707300000   5.866450914700000  20.357352191600000
  167   3   6.821702707300000  12.401968705000000   9.750697388000001
  168   3   6.821702707300000  12.401968705000000  20.357352191600000
  169   3   5.605411198500000   0.669067150100000   0.855957012500000
  170   3   5.605411198500000   0.669067150100000  11.462611582799999
  171   3   5.605411198500000   7.204585032000000   0.855957012500000
  172   3   5.605411198500000   7.204585032000000  11.462611582799999
  173   3  11.818968337799999   0.669067150100000   0.855957012500000
  174   3  11.818968337799999   0.669067150100000  11.462611582799999
  175   3  11.818968337799999   7.204585032000000   0.855957012500000
  176   3  11.818968337799999   7.204585032000000  11.462611582799999
  177   3   0.549663671100000   2.571948633400000   7.954990625400000
  178   3   0.549663671100000   2.571948633400000  18.561644792599999
  179   3   0.549663671100000   9.107466423800000   7.954990625400000
  180   3   0.549663671100000   9.107466423800000  18.561644792599999
  181   3   6.763220400300000   2.571948633400000   7.954990625400000
  182   3   6.763220400300000   2.571948633400000  18.561644792599999
  183   3   6.763220400300000   9.107466423800000   7.954990625400000
  184   3   6.763220400300000   9.107466423800000  18.561644792599999
  185   3   5.663893132700000   3.963569536000000   2.651663541800000
  186   3   5.663893132700000   3.963569536000000  13.258317709000000
  187   3   5.663893132700000  10.499088084400000   2.651663541800000
  188   3   5.663893132700000  10.499088084400000  13.258317709000000
  189   3  11.877449899200000   3.963569536000000   2.651663541800000
  190   3  11.877449899200000   3.963569536000000  13.258317709000000
  191   3  11.877449899200000  10.499088084400000   2.651663541800000
  192   3  11.877449899200000  10.499088084400000  13.258317709000000

