ITEM: TIMESTEP
0
ITEM: NUMBER OF ATOMS
192
ITEM: BOX BOUNDS xy xz yz pp pp pp
0.0000000000000000e+00 1.2427113533000000e+01 0.0000000000000000e+00
0.0000000000000000e+00 1.3071036338800001e+01 0.0000000000000000e+00
0.0000000000000000e+00 2.1213308334400001e+01 0.0000000000000000e+00
ITEM: ATOMS id xu yu zu fx fy fz
17    0.297262781700000    2.682078702400000    1.000430206500000   -0.122644856572151    0.008547350764275    0.206722170114517
41    3.404041227099999    0.585680473800000    1.000430206500000   -0.122666940093040   -0.008479252457619    0.206648126244545
89    3.404301960299999    3.703913307600000    2.651663541800000    0.017847627401352   -0.065362229943275    0.000016659265384
137    2.498632815300000    2.598692026100000    0.855957012500000   -0.093518763780594   -0.022950366139412    0.124724596738815
21    6.510819237499998    2.682078702400000    1.000430206500000   -0.122725434601307    0.008539110422134    0.206667333841324
169    5.605411198500000    0.669067150100000    0.855957012500000   -0.093469396233559    0.022899277508259    0.124729909002781
185    5.663893132700000    3.963569536000000    2.651663541800000   -0.022833008319139   -0.070376515388489    0.000226477161050
45    9.617598366399999    0.585680473800000    1.000430206500000   -0.122681006789207   -0.008509814739227    0.206700474023819
93    9.617859099700000    3.703913307600000    2.651663541800000    0.017856312915683   -0.065395325422287   -0.000017715618014
141    8.712189954599999    2.598692026100000    0.855957012500000   -0.093401402235031   -0.022934451699257    0.124714456498623
173   11.818968337799999    0.669067150100000    0.855957012500000   -0.093504704535007    0.022937193512917    0.124732062220573
189   11.877449899200000    3.963569536000000    2.651663541800000   -0.022893767803907   -0.070372320711613   -0.000025009838282
43    3.404041227099999    7.121198551700000    1.000430206500000   -0.122667044401169   -0.008508697152138    0.206669420003891
65    0.297523738700000    6.099363946500000    2.651663541800000    0.017854163423181    0.065379217267036    0.000021535903215
121    2.557114749400000    5.839707718100000    2.651663541800000   -0.022918527945876    0.070280432701111   -0.000068927416578
69    6.511080716399999    6.099363946500000    2.651663541800000    0.017796959728003    0.065379910171032   -0.000029576011002
171    5.605411198500000    7.204585032000001    0.855957012500000   -0.093436263501644    0.023016162216663    0.124753147363663
47    9.617598366399999    7.121198551700000    1.000430206500000   -0.122600160539150   -0.008543252944946    0.206696182489395
125    8.770671515900000    5.839707718100000    2.651663541800000   -0.022894538938999    0.070323958992958   -0.000023432541639
175   11.818968337799999    7.204585032000001    0.855957012500000   -0.093529857695103    0.022963114082813    0.124713331460953
19    0.297262781700000    9.217596871800000    1.000430206500000   -0.122672691941261    0.008464604616165    0.206649303436279
67    0.297523738700000   12.634882115900002    2.651663541800000    0.017832743003964    0.065395757555962    0.000012194272131
91    3.404301960299999   10.239431477000000    2.651663541800000    0.017865680158138   -0.065385200083256    0.000009353158021
123    2.557114749400000   12.375225508500000    2.651663541800000   -0.022906988859177    0.070318974554539    0.000022934618755
139    2.498632815300000    9.134210391500000    0.855957012500000   -0.093509621918201   -0.022952191531658    0.124740801751614
23    6.510819237499998    9.217596871800000    1.000430206500000   -0.122756175696850    0.008476048707962    0.206734001636505
71    6.511080716399999   12.634882115900002    2.651663541800000    0.017776511609554    0.065421551465988    0.000002289190888
187    5.663893132700000   10.499088084400002    2.651663541800000   -0.022893536835909   -0.070400148630142   -0.000013339333236
95    9.617859099700000   10.239431477000000    2.651663541800000    0.017836265265942   -0.065379761159420    0.000017314916477
127    8.770671515900000   12.375225508500000    2.651663541800000   -0.022854853421450    0.070287823677063   -0.000053356401622
143    8.712189954599999    9.134210391500000    0.855957012500000   -0.093461744487286   -0.022918403148651    0.124735638499260
191   11.877449899200000   10.499088084400002    2.651663541800000   -0.022956699132919   -0.070273682475090   -0.000044103853725
25    0.297262781700000    2.682078702400000    4.302896728600000   -0.122758202254772    0.008520677685738   -0.206751346588135
57    3.404041227099999    0.585680473800000    4.302896728600000   -0.122578509151936   -0.008618965744972   -0.206803187727928
145    2.498632815300000    2.598692026100000    4.447369986200000   -0.093449816107750   -0.022927679121494   -0.125045731663704
153    3.714923951199999    3.936826339400000    6.159283862799999    0.094814442098141    0.024262212216854    0.123150184750557
29    6.510819237499998    2.682078702400000    4.302896728600000   -0.122715681791306    0.008494898676872   -0.206587076187134
33    5.916293922700000    3.853439467000000    6.303757438599999    0.121923610568047   -0.007709532976151    0.205312460660934
105    5.605411198500000    0.669067150100000    4.447369986200000   -0.093489155173302    0.023157313466072   -0.124647408723831
37   12.129850316399997    3.853439467000000    6.303757438599999    0.122825168073177   -0.008774846792221    0.207017332315445
61    9.617598366399999    0.585680473800000    4.302896728600000   -0.122598722577095   -0.008500695228577   -0.206687241792679
109   11.818968337799999    0.669067150100000    4.447369986200000   -0.093509852886200    0.022942751646042   -0.124751552939415
149    8.712189954599999    2.598692026100000    4.447369986200000   -0.093592815101147   -0.022962339222431   -0.124724097549915
157    9.928480344900001    3.936826339400000    6.159283862799999    0.093373745679855    0.022969640791416    0.124837771058083
49    2.809515539400000    5.949837787100000    6.303757438599999    0.122595891356468    0.008802741765976    0.206845313310623
59    3.404041227099999    7.121198551700000    4.302896728600000   -0.122624784708023   -0.008491426706314   -0.206818729639053
129    0.608145655000000    5.866450914700000    6.159283862799999    0.093540675938129   -0.022887662053108    0.124772891402245
107    5.605411198500000    7.204585032000001    4.447369986200000   -0.093494974076748    0.022931568324566   -0.124810419976711
133    6.821702707300000    5.866450914700000    6.159283862799999    0.093467973172665   -0.023275800049305    0.125023856759071
53    9.023071933099999    5.949837787100000    6.303757438599999    0.122814387083054    0.008567079901695    0.206635206937790
63    9.617598366399999    7.121198551700000    4.302896728600000   -0.122597023844719   -0.008549153804779   -0.206636771559715
111   11.818968337799999    7.204585032000001    4.447369986200000   -0.093497715890408    0.022800177335739   -0.124653197824955
27    0.297262781700000    9.217596871800000    4.302896728600000   -0.122649535536766    0.008512496948242   -0.206617534160614
51    2.809515539400000   12.485355956499999    6.303757438599999    0.122654803097248    0.008595630526543    0.206762537360191
131    0.608145655000000   12.401968705000000    6.159283862799999    0.093486502766609   -0.022876866161823    0.124794796109200
147    2.498632815300000    9.134210391500000    4.447369986200000   -0.093427486717701   -0.022882513701916   -0.124728433787823
155    3.714923951199999   10.472344887900000    6.159283862799999    0.093456625938416    0.022900670766830    0.124741643667221
31    6.510819237499998    9.217596871800000    4.302896728600000   -0.122723162174225    0.008523002266884   -0.206743419170380
35    5.916293922700000   10.388957636400002    6.303757438599999    0.122696250677109   -0.008502125740051    0.206632450222969
135    6.821702707300000   12.401968705000000    6.159283862799999    0.093499660491943   -0.022896870970726    0.124794282019138
39   12.129850316399997   10.388957636400002    6.303757438599999    0.122619792819023   -0.008446037769318    0.206634983420372
55    9.023071933099999   12.485355956499999    6.303757438599999    0.122593440115452    0.008507102727890    0.206621915102005
151    8.712189954599999    9.134210391500000    4.447369986200000   -0.093436233699322   -0.022849053144455   -0.124694049358368
159    9.928480344900001   10.472344887900000    6.159283862799999    0.093464046716690    0.022850491106510    0.124733015894890
73    2.809254619699999    2.831604665700000    7.954990625400001   -0.021919371560216    0.059955753386021   -0.008338231593370
97    3.704923951200000    3.936826339400000    9.750697388000001    0.144181370735168    0.001352861523628   -0.111911594867706
113    3.656442017100000    0.695810490500000    7.954990625400001    0.023909758776426   -0.071932412683964   -0.000052441610023
177    0.549663671100000    2.571948633400000    7.954990625400001    0.019390080124140    0.070223413407803   -0.000149172730744
9    5.916293922700000    3.853439467000000    9.606223812200000    0.080417931079865   -0.008321225643158   -0.210246428847313
81    5.916033189399998    0.436154327500000    7.954990625400001   -0.017807522788644   -0.065524853765965   -0.000093759503216
181    6.763220400299998    2.571948633400000    7.954990625400001    0.022629722952843    0.069099806249142    0.000901568913832
13   12.129850316399997    3.853439467000000    9.606223812200000    0.123161002993584   -0.008143067359924   -0.206010237336159
77    9.022811199800000    2.831604665700000    7.954990625400001   -0.017854478210211    0.065687693655491    0.000350949354470
85   12.129589583100000    0.436154327500000    7.954990625400001   -0.017738943919539   -0.065271832048893    0.000026611924113
101    9.928480344900001    3.936826339400000    9.750697388000001    0.094701357185841    0.022335916757584   -0.124203518033028
117    9.869998783600000    0.695810490500000    7.954990625400001    0.022958789020777   -0.070084139704704    0.000029834685847
1    2.809515539400000    5.949837787100000    9.606223812200000    0.111993536353111    0.031924292445183   -0.205496251583099
115    3.656442017100000    7.231328999700000    7.954990625400001    0.023018034175038   -0.070788361132145   -0.000437042210251
161    0.608145655000000    5.866450914700000    9.750697388000001    0.092104643583298   -0.022908166050911   -0.125070691108704
83    5.916033189399998    6.971672392300000    7.954990625400001   -0.018107542768121   -0.065888054668903    0.000240158755332
165    6.821702707300000    5.866450914700000    9.750697388000001    0.091834858059883   -0.020418472588062   -0.123983271420002
5    9.023071933099999    5.949837787100000    9.606223812200000    0.124377794563770    0.008226990699768   -0.206584274768829
87   12.129589583100000    6.971672392300000    7.954990625400001   -0.017910493537784   -0.065497331321239    0.000053682080761
119    9.869998783600000    7.231328999700000    7.954990625400001    0.022960659116507   -0.070300266146660   -0.000059655401856
3    2.809515539400000   12.485355956499999    9.606223812200000    0.122751168906689    0.008344560861588   -0.206373572349548
75    2.809254619699999    9.367123031200000    7.954990625400001   -0.017864486202598    0.065490812063217   -0.000045651569963
99    3.714923951199999   10.472344887900000    9.750697388000001    0.093506082892418    0.022855259478092   -0.124635592103004
163    0.608145655000000   12.401968705000000    9.750697388000001    0.093506872653961   -0.022651642560959   -0.124582380056381
179    0.549663671100000    9.107466423800000    7.954990625400001    0.022883623838425    0.070263393223286    0.000023399479687
11    5.916293922700000   10.388957636400002    9.606223812200000    0.122676476836205   -0.008544042706490   -0.206645131111145
167    6.821702707300000   12.401968705000000    9.750697388000001    0.093412362039089   -0.022783532738686   -0.124923273921013
183    6.763220400299998    9.107466423800000    7.954990625400001    0.022901555523276    0.070256598293781    0.000038478523493
7    9.023071933099999   12.485355956499999    9.606223812200000    0.122613236308098    0.008733332157135   -0.206534296274185
15   12.129850316399997   10.388957636400002    9.606223812200000    0.122630819678307   -0.008465856313705   -0.206668376922607
79    9.022811199800000    9.367123031200000    7.954990625400001   -0.017778681591153    0.065444007515907   -0.000011234544218
103    9.928480344900001   10.472344887900000    9.750697388000001    0.093574315309525    0.022838868200779   -0.124755144119263
18    0.297262781700000    2.682078702400000   11.607084522199999   -0.128553777933121    0.009489983320236    0.205742746591568
42    3.404041227099999    0.585680473800000   11.607084522199999   -0.121859803795815   -0.013735041022301    0.207046151161194
90    3.404301960299999    3.703913307600000   13.258317709000000    0.018289826810360   -0.064248442649841    0.002597109880298
138    2.498632815300000    2.598692026100000   11.462611582800001   -0.085198253393173   -0.014134064316750    0.116258747875690
22    6.510819237499998    2.682078702400000   11.607084522199999   -0.118566289544106    0.005947589874268    0.208187460899353
170    5.605411198500000    0.669067150100000   11.462611582800001   -0.093595951795578    0.022126309573650    0.125719100236893
186    5.663893132700000    3.963569536000000   13.258317709000000   -0.023793637752533   -0.069970577955246    0.003436059225351
46    9.617598366399999    0.585680473800000   11.607084522199999   -0.122104458510876   -0.008595183491707    0.206731975078583
94    9.617859099700000    3.703913307600000   13.258317709000000    0.017984688282013   -0.065448656678200   -0.000124586746097
142    8.712189954599999    2.598692026100000   11.462611582800001   -0.093192301690578   -0.022711656987667    0.124614901840687
174   11.818968337799999    0.669067150100000   11.462611582800001   -0.093397542834282    0.022419176995754    0.124725885689259
190   11.877449899200000    3.963569536000000   13.258317709000000   -0.022923866286874   -0.070095501840115    0.000372407957911
44    3.404041227099999    7.121198551700000   11.607084522199999   -0.123073846101761   -0.008464783430099    0.206812903285027
66    0.297523738700000    6.099363946500000   13.258317709000000    0.017791651189327    0.065427064895630   -0.000159746035933
122    2.557114749400000    5.839707718100000   13.258317709000000   -0.022919479757547    0.069793246686459   -0.001224158564582
70    6.511080716399999    6.099363946500000   13.258317709000000    0.018123079091311    0.065717704594135    0.000339740887284
172    5.605411198500000    7.204585032000001   11.462611582800001   -0.093542888760567    0.023485474288464    0.124566093087196
48    9.617598366399999    7.121198551700000   11.607084522199999   -0.122742339968681   -0.008556142449379    0.206606566905975
126    8.770671515900000    5.839707718100000   13.258317709000000   -0.022941350936890    0.070409484207630   -0.000109323300421
176   11.818968337799999    7.204585032000001   11.462611582800001   -0.093497939407825    0.022760741412640    0.124695435166359
20    0.297262781700000    9.217596871800000   11.607084522199999   -0.122621975839138    0.008260622620583    0.206602796912193
68    0.297523738700000   12.634882115900002   13.258317709000000    0.017905246466398    0.065641686320305   -0.000136154703796
92    3.404301960299999   10.239431477000000   13.258317709000000    0.017823150381446   -0.065508767962456   -0.000039030255721
124    2.557114749400000   12.375225508500000   13.258317709000000   -0.023002278059721    0.070462025702000   -0.000087079301011
140    2.498632815300000    9.134210391500000   11.462611582800001   -0.093384087085724   -0.022932656109333    0.124267689883709
24    6.510819237499998    9.217596871800000   11.607084522199999   -0.122638575732708    0.008784204721451    0.206791937351227
72    6.511080716399999   12.634882115900002   13.258317709000000    0.017951216548681    0.064965784549713    0.000449415296316
188    5.663893132700000   10.499088084400002   13.258317709000000   -0.022867958992720   -0.070373192429543   -0.000112615525723
96    9.617859099700000   10.239431477000000   13.258317709000000    0.017808651551604   -0.065412268042564    0.000007530208677
128    8.770671515900000   12.375225508500000   13.258317709000000   -0.022824384272099    0.070349059998989   -0.000058691468439
144    8.712189954599999    9.134210391500000   11.462611582800001   -0.093585103750229   -0.023090034723282    0.124770313501358
192   11.877449899200000   10.499088084400002   13.258317709000000   -0.022880852222443   -0.070294290781021    0.000029709655792
26    0.297262781700000    2.682078702400000   14.909550895800001   -0.122592240571976    0.008299455046654   -0.206646934151649
58    3.404041227099999    0.585680473800000   14.909550895800001   -0.122512951493263   -0.008327975869179   -0.206737637519836
146    2.498632815300000    2.598692026100000   15.054023835200001   -0.093554124236107   -0.023018352687359   -0.125147625803947
154    3.714923951199999    3.936826339400000   16.765937393600002    0.093511819839478    0.023022793233395    0.124776192009449
30    6.510819237499998    2.682078702400000   14.909550895800001   -0.122413948178291    0.008127152919769   -0.206598728895187
34    5.916293922700000    3.853439467000000   16.910411605800000    0.122667543590069   -0.008483633399010    0.206756651401520
106    5.605411198500000    0.669067150100000   15.054023835200001   -0.093522712588310    0.023045949637890   -0.124746195971966
38   12.129850316399997    3.853439467000000   16.910411605800000    0.122625015676022   -0.008429318666458    0.206826359033585
62    9.617598366399999    0.585680473800000   14.909550895800001   -0.122628927230835   -0.008427128195763   -0.206780448555946
110   11.818968337799999    0.669067150100000   15.054023835200001   -0.093426257371902    0.023028306663036   -0.124850764870644
150    8.712189954599999    2.598692026100000   15.054023835200001   -0.093663096427917   -0.022989138960838   -0.124650970101357
158    9.928480344900001    3.936826339400000   16.765937393600002    0.093573823571205    0.023030512034893    0.124810382723808
50    2.809515539400000    5.949837787100000   16.910411605800000    0.122651025652885    0.008447811007500    0.206752926111221
60    3.404041227099999    7.121198551700000   14.909550895800001   -0.122597776353359   -0.008395448327065   -0.206651717424393
130    0.608145655000000    5.866450914700000   16.765937393600002    0.093502782285213   -0.023017853498459    0.124751612544060
108    5.605411198500000    7.204585032000001   15.054023835200001   -0.093438640236855    0.022914312779903   -0.124734848737717
134    6.821702707300000    5.866450914700000   16.765937393600002    0.093494176864624   -0.022929385304451    0.124727264046669
54    9.023071933099999    5.949837787100000   16.910411605800000    0.122631616890430    0.008453741669655    0.206737369298935
64    9.617598366399999    7.121198551700000   14.909550895800001   -0.122630372643471   -0.008435815572739   -0.206676781177521
112   11.818968337799999    7.204585032000001   15.054023835200001   -0.093531712889671    0.023002795875072   -0.124790720641613
28    0.297262781700000    9.217596871800000   14.909550895800001   -0.122640013694763    0.008457913994789   -0.206687033176422
52    2.809515539400000   12.485355956499999   16.910411605800000    0.122624628245831    0.008421972393990    0.206812977790833
132    0.608145655000000   12.401968705000000   16.765937393600002    0.093486830592155   -0.022914804518223    0.124681048095226
148    2.498632815300000    9.134210391500000   15.054023835200001   -0.093518257141113   -0.022936306893826   -0.124730601906776
156    3.714923951199999   10.472344887900000   16.765937393600002    0.093479566276073    0.022986635565758    0.124724268913269
32    6.510819237499998    9.217596871800000   14.909550895800001   -0.122641347348690    0.008458167314529   -0.206711709499359
36    5.916293922700000   10.388957636400002   16.910411605800000    0.122633323073387   -0.008448988199234    0.206743508577347
136    6.821702707300000   12.401968705000000   16.765937393600002    0.093490153551102   -0.022977814078331    0.124744117259979
40   12.129850316399997   10.388957636400002   16.910411605800000    0.122635602951050   -0.008445769548416    0.206729501485825
56    9.023071933099999   12.485355956499999   16.910411605800000    0.122643746435642    0.008460789918900    0.206724658608437
152    8.712189954599999    9.134210391500000   15.054023835200001   -0.093492507934570   -0.022961616516113   -0.124741166830063
160    9.928480344900001   10.472344887900000   16.765937393600002    0.093499585986137    0.022958315908909    0.124743312597275
74    2.809254619699999    2.831604665700000   18.561644792599999   -0.017794754356146    0.065402522683144   -0.000005742069334
98    3.714923951199999    3.936826339400000   20.357352191600000    0.093516007065773    0.022966638207436   -0.124799951910973
114    3.656442017100000    0.695810490500000   18.561644792599999    0.022856805473566   -0.070362068712711   -0.000048984540626
178    0.549663671100000    2.571948633400000   18.561644792599999    0.022860739380121    0.070367507636547   -0.000059702899307
10    5.916293922700000    3.853439467000000   20.212877979400002    0.122627109289169   -0.008452072739601   -0.206712052226067
82    5.916033189399998    0.436154327500000   18.561644792599999   -0.017808143049479   -0.065395340323448   -0.000006815418601
182    6.763220400299998    2.571948633400000   18.561644792599999    0.022875996306539    0.070350497961044    0.000030977884308
14   12.129850316399997    3.853439467000000   20.212877979400002    0.122632086277008   -0.008475348353386   -0.206718102097511
78    9.022811199800000    2.831604665700000   18.561644792599999   -0.017811447381973    0.065391495823860    0.000000072643161
86   12.129589583100000    0.436154327500000   18.561644792599999   -0.017808120697737   -0.065404489636421    0.000005320741366
102    9.928480344900001    3.936826339400000   20.357352191600000    0.093490011990070    0.022956639528275   -0.124772064387798
118    9.869998783600000    0.695810490500000   18.561644792599999    0.022870443761349   -0.070354476571083   -0.000015311874449
2    2.809515539400000    5.949837787100000   20.212877979400002    0.122637860476971    0.008462548255920   -0.206718027591705
116    3.656442017100000    7.231328999700000   18.561644792599999    0.022867865860462   -0.070357806980610   -0.000026583309591
162    0.608145655000000    5.866450914700000   20.357352191600000    0.093496426939964   -0.022947490215302   -0.124775215983391
84    5.916033189399998    6.971672392300000   18.561644792599999   -0.017803646624088   -0.065402686595917   -0.000016188063455
166    6.821702707300000    5.866450914700000   20.357352191600000    0.093505948781967   -0.022996641695499   -0.124796628952026
6    9.023071933099999    5.949837787100000   20.212877979400002    0.122630968689919    0.008456736803055   -0.206720501184464
88   12.129589583100000    6.971672392300000   18.561644792599999   -0.017810609191656   -0.065390028059483   -0.000000998525593
120    9.869998783600000    7.231328999700000   18.561644792599999    0.022866139188409   -0.070362761616707   -0.000035639852285
4    2.809515539400000   12.485355956499999   20.212877979400002    0.122629515826702    0.008451998233795   -0.206709831953049
76    2.809254619699999    9.367123031200000   18.561644792599999   -0.017800554633141    0.065398685634136    0.000004324596375
100    3.714923951199999   10.472344887900000   20.357352191600000    0.093526586890221    0.022989906370640   -0.124825358390808
164    0.608145655000000   12.401968705000000   20.357352191600000    0.093514919281006   -0.022993616759777   -0.124818056821823
180    0.549663671100000    9.107466423800000   18.561644792599999    0.022869888693094    0.070350743830204   -0.000023772707209
12    5.916293922700000   10.388957636400002   20.212877979400002    0.122627407312393   -0.008456841111183   -0.206719726324081
168    6.821702707300000   12.401968705000000   20.357352191600000    0.093495875597000   -0.022977121174335   -0.124792650341988
184    6.763220400299998    9.107466423800000   18.561644792599999    0.022854380309582    0.070370770990849   -0.000016458332539
8    9.023071933099999   12.485355956499999   20.212877979400002    0.122641876339912    0.008454516530037   -0.206723332405090
16   12.129850316399997   10.388957636400002   20.212877979400002    0.122638106346130   -0.008456259965897   -0.206709012389183
80    9.022811199800000    9.367123031200000   18.561644792599999   -0.017791774123907    0.065399050712585    0.000000178813934
104    9.928480344900001   10.472344887900000   20.357352191600000    0.093515001237392    0.022982805967331   -0.124802134931087
