ITEM: TIMESTEP
0
ITEM: NUMBER OF ATOMS
192
ITEM: BOX BOUNDS xy xz yz pp pp pp
0.0000000000000000e+00 1.2427113533000000e+01 0.0000000000000000e+00
0.0000000000000000e+00 1.3071036338800001e+01 0.0000000000000000e+00
0.0000000000000000e+00 2.1213308334400001e+01 0.0000000000000000e+00
ITEM: ATOMS id xu yu zu fx fy fz
17    0.297262781700000    2.682078702400000    1.000430206500000   -0.122642144560814    0.008526176214218    0.206748545169830
41    3.404041227099999    0.585680473800000    1.000430206500000   -0.122654221951962   -0.008505001664162    0.206729665398598
89    3.404301960299999    3.703913307600000    2.651663541800000    0.017809906974435   -0.065321058034897    0.000148370163515
137    2.498632815300000    2.598692026100000    0.855957012500000   -0.093509674072266   -0.023007571697235    0.124699026346207
21    6.510819237499998    2.682078702400000    1.000430206500000   -0.122720941901207    0.008506715297699    0.206674665212631
169    5.605411198500000    0.669067150100000    0.855957012500000   -0.093525514006615    0.022910080850124    0.124737836420536
185    5.663893132700000    3.963569536000000    2.651663541800000   -0.022806450724602   -0.070334069430828    0.000036735087633
45    9.617598366399999    0.585680473800000    1.000430206500000   -0.122690439224243   -0.008506283164024    0.206721857190132
93    9.617859099700000    3.703913307600000    2.651663541800000    0.017842978239059   -0.065407365560532    0.000007337192073
141    8.712189954599999    2.598692026100000    0.855957012500000   -0.093401849269867   -0.022942453622818    0.124714978039265
173   11.818968337799999    0.669067150100000    0.855957012500000   -0.093502834439278    0.022919632494450    0.124713778495789
189   11.877449899200000    3.963569536000000    2.651663541800000   -0.022878466174006   -0.070391543209553    0.000008423710824
43    3.404041227099999    7.121198551700000    1.000430206500000   -0.122681081295013   -0.008513942360878    0.206690877676010
65    0.297523738700000    6.099363946500000    2.651663541800000    0.017863683402538    0.065384864807129    0.000012724660337
121    2.557114749400000    5.839707718100000    2.651663541800000   -0.022907909005880    0.070393145084381   -0.000005602603778
69    6.511080716399999    6.099363946500000    2.651663541800000    0.017804928123951    0.065386265516281    0.000023579224944
171    5.605411198500000    7.204585032000001    0.855957012500000   -0.093432128429413    0.023012846708298    0.124745637178421
47    9.617598366399999    7.121198551700000    1.000430206500000   -0.122595429420471   -0.008547216653824    0.206689983606339
125    8.770671515900000    5.839707718100000    2.651663541800000   -0.022893372923136    0.070333257317543   -0.000025119632483
175   11.818968337799999    7.204585032000001    0.855957012500000   -0.093535475432873    0.022956468164921    0.124705649912357
19    0.297262781700000    9.217596871800000    1.000430206500000   -0.122659303247929    0.008470952510834    0.206661880016327
67    0.297523738700000   12.634882115900002    2.651663541800000    0.017775258049369    0.065328359603882   -0.000077628064901
91    3.404301960299999   10.239431477000000    2.651663541800000    0.017963038757443   -0.065364144742489   -0.000090179382823
123    2.557114749400000   12.375225508500000    2.651663541800000   -0.022775400429964    0.070643208920956   -0.001355226384476
139    2.498632815300000    9.134210391500000    0.855957012500000   -0.093485519289970   -0.022917963564396    0.124750763177872
23    6.510819237499998    9.217596871800000    1.000430206500000   -0.122757390141487    0.008484348654747    0.206724464893341
71    6.511080716399999   12.634882115900002    2.651663541800000    0.017768550664186    0.065489083528519    0.000098314136267
187    5.663893132700000   10.499088084400002    2.651663541800000   -0.022979365661740   -0.070419929921627    0.000066927168518
95    9.617859099700000   10.239431477000000    2.651663541800000    0.017831336706877   -0.065379135310650    0.000009040813893
127    8.770671515900000   12.375225508500000    2.651663541800000   -0.022832971066236    0.070300526916981   -0.000024334993213
143    8.712189954599999    9.134210391500000    0.855957012500000   -0.093459926545620   -0.022916860878468    0.124737381935120
191   11.877449899200000   10.499088084400002    2.651663541800000   -0.022933628410101   -0.070285968482494    0.000032498825021
25    0.297262781700000    2.682078702400000    4.302896728600000   -0.122543588280678    0.008637681603432   -0.206854403018951
57    3.404041227099999    0.585680473800000    4.302896728600000   -0.122337639331818   -0.007801935076714   -0.207073941826820
145    2.498632815300000    2.598692026100000    4.447369986200000   -0.092911005020142   -0.022018887102604   -0.125530034303665
153    3.714923951199999    3.936826339400000    6.159283862799999    0.095253065228462    0.028136678040028    0.118232712149620
29    6.510819237499998    2.682078702400000    4.302896728600000   -0.122547596693039    0.008450388908386   -0.206595420837402
33    5.916293922700000    3.853439467000000    6.303757438599999    0.121972575783730   -0.009231805801392    0.207030206918716
105    5.605411198500000    0.669067150100000    4.447369986200000   -0.093346722424030    0.023301109671593   -0.125336825847626
37   12.129850316399997    3.853439467000000    6.303757438599999    0.123001143336296   -0.009098991751671    0.207462608814240
61    9.617598366399999    0.585680473800000    4.302896728600000   -0.122691541910172   -0.008535996079445   -0.206644326448441
109   11.818968337799999    0.669067150100000    4.447369986200000   -0.093296140432358    0.022868387401104   -0.124477066099644
149    8.712189954599999    2.598692026100000    4.447369986200000   -0.093517877161503   -0.022889569401741   -0.124768555164337
157    9.928480344900001    3.936826339400000    6.159283862799999    0.093360736966133    0.022919192910194    0.124766238033772
49    2.809515539400000    5.949837787100000    6.303757438599999    0.123107269406319    0.007913932204247    0.206320807337761
59    3.404041227099999    7.121198551700000    4.302896728600000   -0.122586674988270   -0.008700996637344   -0.206696212291718
129    0.608145655000000    5.866450914700000    6.159283862799999    0.093435123562813   -0.023008212447166    0.124748125672340
107    5.605411198500000    7.204585032000001    4.447369986200000   -0.093473598361015    0.023045152425766   -0.124751031398773
133    6.821702707300000    5.866450914700000    6.159283862799999    0.093417003750801   -0.022837691009045    0.124716155230999
53    9.023071933099999    5.949837787100000    6.303757438599999    0.122726306319237    0.008519649505615    0.206654593348503
63    9.617598366399999    7.121198551700000    4.302896728600000   -0.122640684247017   -0.008550941944122   -0.206638202071190
111   11.818968337799999    7.204585032000001    4.447369986200000   -0.093504212796688    0.022904895246029   -0.124697074294090
27    0.297262781700000    9.217596871800000    4.302896728600000   -0.122696891427040    0.008419141173363   -0.206700474023819
51    2.809515539400000   12.485355956499999    6.303757438599999    0.132244870066643    0.024227023124695    0.228814274072647
131    0.608145655000000   12.401968705000000    6.159283862799999    0.092019505798817   -0.022079601883888    0.124553799629211
147    2.498632815300000    9.134210391500000    4.447369986200000   -0.093546867370605   -0.023327998816967   -0.124859683215618
155    3.714923951199999   10.472344887900000    6.159283862799999    0.093822725117207    0.022447921335697    0.124934375286102
31    6.510819237499998    9.217596871800000    4.302896728600000   -0.122843116521835    0.008443981409073   -0.206774383783340
35    5.916293922700000   10.388957636400002    6.303757438599999    0.123779676854610   -0.008687615394592    0.206957206130028
135    6.821702707300000   12.401968705000000    6.159283862799999    0.093337185680866   -0.022446729242802    0.125185072422028
39   12.129850316399997   10.388957636400002    6.303757438599999    0.122283026576042   -0.009213909506798    0.206656962633133
55    9.023071933099999   12.485355956499999    6.303757438599999    0.122726961970329    0.008526369929314    0.206578597426414
151    8.712189954599999    9.134210391500000    4.447369986200000   -0.093442566692829   -0.022869601845741   -0.124740183353424
159    9.928480344900001   10.472344887900000    6.159283862799999    0.093454934656620    0.022917464375496    0.124747872352600
73    2.809254619699999    2.831604665700000    7.954990625400001   -0.024967931210995    0.080738268792629   -0.000008143484592
97    3.714923951199999    3.936826339400000    9.750697388000001    0.095242105424404    0.028178498148918   -0.118232741951942
113    3.656442017100000    0.705810490500000    7.954990625400001    0.016061309725046   -0.131531879305840    0.000032686395571
177    0.549663671100000    2.571948633400000    7.954990625400001    0.013676891103387    0.071910031139851   -0.000005732057616
9    5.916293922700000    3.853439467000000    9.606223812200000    0.121985822916031   -0.009211018681526   -0.207013726234436
81    5.916033189399998    0.436154327500000    7.954990625400001   -0.021505126729608   -0.064919129014015   -0.000017544254661
181    6.763220400299998    2.571948633400000    7.954990625400001    0.025673951953650    0.071958482265472   -0.000014038290828
13   12.129850316399997    3.853439467000000    9.606223812200000    0.122967138886452   -0.009056001901627   -0.207413092255592
77    9.022811199800000    2.831604665700000    7.954990625400001   -0.018122179433703    0.065388321876526   -0.000010961201042
85   12.129589583100000    0.436154327500000    7.954990625400001   -0.017711162567139   -0.064956963062286   -0.000008236285794
101    9.928480344900001    3.936826339400000    9.750697388000001    0.093440227210522    0.022975243628025   -0.124787762761116
117    9.869998783600000    0.695810490500000    7.954990625400001    0.023026222363114   -0.070211127400398    0.000024591106921
1    2.809515539400000    5.949837787100000    9.606223812200000    0.123125076293945    0.007878243923187   -0.206362158060074
115    3.656442017100000    7.231328999700000    7.954990625400001    0.023022826761007   -0.070426195859909    0.000007134862244
161    0.608145655000000    5.866450914700000    9.750697388000001    0.093389034271240   -0.023039601743221   -0.124711781740189
83    5.916033189399998    6.971672392300000    7.954990625400001   -0.017795057967305   -0.065491102635860    0.000002440065145
165    6.821702707300000    5.866450914700000    9.750697388000001    0.093487948179245   -0.022817991673946   -0.124709017574787
5    9.023071933099999    5.949837787100000    9.606223812200000    0.122654989361763    0.008478298783302   -0.206692889332771
87   12.129589583100000    6.971672392300000    7.954990625400001   -0.017849152907729   -0.065431922674179   -0.000003881108114
119    9.869998783600000    7.231328999700000    7.954990625400001    0.022891364991665   -0.070341669023037    0.000013699289411
3    2.809515539400000   12.485355956499999    9.606223812200000    0.132239073514938    0.024211585521698   -0.228830009698868
75    2.809254619699999    9.367123031200000    7.954990625400001   -0.018027933314443    0.065465524792671    0.000009967945516
99    3.714923951199999   10.472344887900000    9.750697388000001    0.093833014369011    0.022468373179436   -0.124912112951279
163    0.608145655000000   12.401968705000000    9.750697388000001    0.092051424086094   -0.022017031908035   -0.124522581696510
179    0.549663671100000    9.107466423800000    7.954990625400001    0.022962929680943    0.070537842810154    0.000000457977876
11    5.916293922700000   10.388957636400002    9.606223812200000    0.123758152127266   -0.008679330348969   -0.206974029541016
167    6.821702707300000   12.401968705000000    9.750697388000001    0.093316338956356   -0.022501446306705   -0.125166207551956
183    6.763220400299998    9.107466423800000    7.954990625400001    0.022678706794977    0.070579051971436    0.000016060657799
7    9.023071933099999   12.485355956499999    9.606223812200000    0.122770927846432    0.008601486682892   -0.206580042839050
15   12.129850316399997   10.388957636400002    9.606223812200000    0.122317060828209   -0.009280905127525   -0.206647127866745
79    9.022811199800000    9.367123031200000    7.954990625400001   -0.017771806567907    0.065416321158409   -0.000007255002856
103    9.928480344900001   10.472344887900000    9.750697388000001    0.093431785702705    0.022894717752934   -0.124742388725281
18    0.297262781700000    2.682078702400000   11.607084522199999   -0.122533462941647    0.008657157421112    0.206808403134346
42    3.404041227099999    0.585680473800000   11.607084522199999   -0.122450530529022   -0.007791996002197    0.207073599100113
90    3.404301960299999    3.703913307600000   13.258317709000000    0.017780484631658   -0.065333962440491   -0.000150536696310
138    2.498632815300000    2.598692026100000   11.462611582800001   -0.092902027070522   -0.022013396024704    0.125578105449677
22    6.510819237499998    2.682078702400000   11.607084522199999   -0.122529916465282    0.008383482694626    0.206572994589806
170    5.605411198500000    0.669067150100000   11.462611582800001   -0.093220263719559    0.023315213620663    0.125365585088730
186    5.663893132700000    3.963569536000000   13.258317709000000   -0.022830013185740   -0.070318482816219    0.000020381063223
46    9.617598366399999    0.585680473800000   11.607084522199999   -0.122813329100609   -0.008562833070755    0.206674724817276
94    9.617859099700000    3.703913307600000   13.258317709000000    0.017797311767936   -0.065380051732063    0.000010243151337
142    8.712189954599999    2.598692026100000   11.462611582800001   -0.093516364693642   -0.022949896752834    0.124799624085426
174   11.818968337799999    0.669067150100000   11.462611582800001   -0.093222364783287    0.022807024419308    0.124493785202503
190   11.877449899200000    3.963569536000000   13.258317709000000   -0.022873863577843   -0.070330545306206   -0.000009915791452
44    3.404041227099999    7.121198551700000   11.607084522199999   -0.122627951204777   -0.008644923567772    0.206769227981567
66    0.297523738700000    6.099363946500000   13.258317709000000    0.017848286777735    0.065405741333961   -0.000011586584151
122    2.557114749400000    5.839707718100000   13.258317709000000   -0.022898398339748    0.070444315671921    0.000021151994588
70    6.511080716399999    6.099363946500000   13.258317709000000    0.017800292000175    0.065430007874966   -0.000021361745894
172    5.605411198500000    7.204585032000001   11.462611582800001   -0.093420214951038    0.023054167628288    0.124779276549816
48    9.617598366399999    7.121198551700000   11.607084522199999   -0.122638851404190   -0.008454009890556    0.206726580858231
126    8.770671515900000    5.839707718100000   13.258317709000000   -0.022862683981657    0.070373043417931    0.000015341676772
176   11.818968337799999    7.204585032000001   11.462611582800001   -0.093453817069530    0.023024260997772    0.124726966023445
20    0.297262781700000    9.217596871800000   11.607084522199999   -0.122677803039551    0.008328452706337    0.206789806485176
68    0.297523738700000   12.634882115900002   13.258317709000000    0.017751941457391    0.065326333045959    0.000093058682978
92    3.404301960299999   10.239431477000000   13.258317709000000    0.017912307754159   -0.065368257462978    0.000100232537079
124    2.557114749400000   12.375225508500000   13.258317709000000   -0.022757237777114    0.070640988647938    0.001443877699785
140    2.498632815300000    9.134210391500000   11.462611582800001   -0.093633942306042   -0.023331783711910    0.124887965619564
24    6.510819237499998    9.217596871800000   11.607084522199999   -0.122766837477684    0.008401423692703    0.206789195537567
72    6.511080716399999   12.634882115900002   13.258317709000000    0.017797075212002    0.065464459359646   -0.000092458911240
188    5.663893132700000   10.499088084400002   13.258317709000000   -0.022959835827351   -0.070384204387665   -0.000066586304456
96    9.617859099700000   10.239431477000000   13.258317709000000    0.017806708812714   -0.065394580364227    0.000013681128621
128    8.770671515900000   12.375225508500000   13.258317709000000   -0.022841591387987    0.070362970232964   -0.000009909749679
144    8.712189954599999    9.134210391500000   11.462611582800001   -0.093488477170467   -0.022970929741859    0.124789305031300
192   11.877449899200000   10.499088084400002   13.258317709000000   -0.022843874990940   -0.070385344326496   -0.000072536524385
26    0.297262781700000    2.682078702400000   14.909550895800001   -0.122609883546829    0.008394032716751   -0.206710740923882
58    3.404041227099999    0.585680473800000   14.909550895800001   -0.122628554701805   -0.008475646376610   -0.206802576780319
146    2.498632815300000    2.598692026100000   15.054023835200001   -0.093532934784889   -0.023053072392941   -0.124709583818913
154    3.714923951199999    3.936826339400000   16.765937393600002    0.093500956892967    0.022986710071564    0.124766185879707
30    6.510819237499998    2.682078702400000   14.909550895800001   -0.122610375285149    0.008387908339500   -0.206694975495338
34    5.916293922700000    3.853439467000000   16.910411605800000    0.122641757130623   -0.008456125855446    0.206715628504753
106    5.605411198500000    0.669067150100000   15.054023835200001   -0.093558833003044    0.022996902465820   -0.124748334288597
38   12.129850316399997    3.853439467000000   16.910411605800000    0.122648231685162   -0.008460551500320    0.206742823123932
62    9.617598366399999    0.585680473800000   14.909550895800001   -0.122644931077957   -0.008446335792542   -0.206737309694290
110   11.818968337799999    0.669067150100000   15.054023835200001   -0.093500532209873    0.022970050573349   -0.124721668660641
150    8.712189954599999    2.598692026100000   15.054023835200001   -0.093535736203194   -0.023007735610008   -0.124740421772003
158    9.928480344900001    3.936826339400000   16.765937393600002    0.093503810465336    0.022983469069004    0.124758377671242
50    2.809515539400000    5.949837787100000   16.910411605800000    0.122638717293739    0.008448094129562    0.206730544567108
60    3.404041227099999    7.121198551700000   14.909550895800001   -0.122644737362862   -0.008443713188171   -0.206739276647568
130    0.608145655000000    5.866450914700000   16.765937393600002    0.093518659472466   -0.022971197962761    0.124764554202557
108    5.605411198500000    7.204585032000001   15.054023835200001   -0.093500345945358    0.022971957921982   -0.124737903475761
134    6.821702707300000    5.866450914700000   16.765937393600002    0.093510523438454   -0.022962167859077    0.124751694500446
54    9.023071933099999    5.949837787100000   16.910411605800000    0.122642122209072    0.008453592658043    0.206741377711296
64    9.617598366399999    7.121198551700000   14.909550895800001   -0.122630655765533   -0.008451923727989   -0.206724181771278
112   11.818968337799999    7.204585032000001   15.054023835200001   -0.093538060784340    0.022994972765446   -0.124750085175037
28    0.297262781700000    9.217596871800000   14.909550895800001   -0.122621551156044    0.008447080850601   -0.206742048263550
52    2.809515539400000   12.485355956499999   16.910411605800000    0.122627593576908    0.008441641926765    0.206778734922409
132    0.608145655000000   12.401968705000000   16.765937393600002    0.093499742448330   -0.022972948849201    0.124747738242149
148    2.498632815300000    9.134210391500000   15.054023835200001   -0.093479901552200   -0.022946044802666   -0.124757930636406
156    3.714923951199999   10.472344887900000   16.765937393600002    0.093499764800072    0.022962860763073    0.124755293130875
32    6.510819237499998    9.217596871800000   14.909550895800001   -0.122640982270241    0.008452430367470   -0.206731140613556
36    5.916293922700000   10.388957636400002   16.910411605800000    0.122632049024105   -0.008445769548416    0.206730708479881
136    6.821702707300000   12.401968705000000   16.765937393600002    0.093517638742924   -0.022985607385635    0.124771758913994
40   12.129850316399997   10.388957636400002   16.910411605800000    0.122636705636978   -0.008438259363174    0.206733733415604
56    9.023071933099999   12.485355956499999   16.910411605800000    0.122634984552860    0.008451163768768    0.206730842590332
152    8.712189954599999    9.134210391500000   15.054023835200001   -0.093499973416328   -0.022971756756306   -0.124741971492767
160    9.928480344900001   10.472344887900000   16.765937393600002    0.093503907322884    0.022964581847191    0.124745681881905
74    2.809254619699999    2.831604665700000   18.561644792599999   -0.017801085487008    0.065396927297115   -0.000001762527972
98    3.714923951199999    3.936826339400000   20.357352191600000    0.093523278832436    0.022979795932770   -0.124802462756634
114    3.656442017100000    0.695810490500000   18.561644792599999    0.022865708917379   -0.070362128317356   -0.000020995503291
178    0.549663671100000    2.571948633400000   18.561644792599999    0.022862631827593    0.070357918739319   -0.000027359230444
10    5.916293922700000    3.853439467000000   20.212877979400002    0.122626006603241   -0.008453935384750   -0.206711918115616
82    5.916033189399998    0.436154327500000   18.561644792599999   -0.017810495570302   -0.065398178994656    0.000001603737473
182    6.763220400299998    2.571948633400000   18.561644792599999    0.022874150425196    0.070355683565140   -0.000008203322068
14   12.129850316399997    3.853439467000000   20.212877979400002    0.122632913291454   -0.008472710847855   -0.206726670265198
78    9.022811199800000    2.831604665700000   18.561644792599999   -0.017804125323892    0.065397314727306   -0.000007118098438
86   12.129589583100000    0.436154327500000   18.561644792599999   -0.017803167924285   -0.065405204892159    0.000005250891718
102    9.928480344900001    3.936826339400000   20.357352191600000    0.093483895063400    0.022953674197197   -0.124767303466797
118    9.869998783600000    0.695810490500000   18.561644792599999    0.022865552455187   -0.070355944335461   -0.000016051344573
2    2.809515539400000    5.949837787100000   20.212877979400002    0.122636616230011    0.008457958698273   -0.206713661551476
116    3.656442017100000    7.231328999700000   18.561644792599999    0.022865684702992   -0.070361033082008   -0.000017806642063
162    0.608145655000000    5.866450914700000   20.357352191600000    0.093497261404991   -0.022944703698158   -0.124773889780045
84    5.916033189399998    6.971672392300000   18.561644792599999   -0.017805296927691   -0.065398901700974   -0.000012262516975
166    6.821702707300000    5.866450914700000   20.357352191600000    0.093508481979370   -0.022997952997684   -0.124796487390995
6    9.023071933099999    5.949837787100000   20.212877979400002    0.122630693018436    0.008456587791443   -0.206721365451813
88   12.129589583100000    6.971672392300000   18.561644792599999   -0.017808493226767   -0.065393000841141   -0.000004567340966
120    9.869998783600000    7.231328999700000   18.561644792599999    0.022865001112223   -0.070361018180847   -0.000032748095691
4    2.809515539400000   12.485355956499999   20.212877979400002    0.122624859213829    0.008442401885986   -0.206752479076385
76    2.809254619699999    9.367123031200000   18.561644792599999   -0.017799444496632    0.065399765968323    0.000000291038305
100    3.714923951199999   10.472344887900000   20.357352191600000    0.093525573611259    0.022986218333244   -0.124828718602657
164    0.608145655000000   12.401968705000000   20.357352191600000    0.093509323894978   -0.022998161613941   -0.124815061688423
180    0.549663671100000    9.107466423800000   18.561644792599999    0.022869221866131    0.070350043475628   -0.000023235334083
12    5.916293922700000   10.388957636400002   20.212877979400002    0.122624382376671   -0.008454144001007   -0.206717222929001
168    6.821702707300000   12.401968705000000   20.357352191600000    0.093505084514618   -0.022987484931946   -0.124811224639416
184    6.763220400299998    9.107466423800000   18.561644792599999    0.022854279726744    0.070371627807617   -0.000013059703633
8    9.023071933099999   12.485355956499999   20.212877979400002    0.122641481459141    0.008453518152237   -0.206719219684601
16   12.129850316399997   10.388957636400002   20.212877979400002    0.122636698186398   -0.008450746536255   -0.206712424755096
80    9.022811199800000    9.367123031200000   18.561644792599999   -0.017792496830225    0.065398350358009   -0.000000430736691
104    9.928480344900001   10.472344887900000   20.357352191600000    0.093518108129501    0.022984027862549   -0.124803312122822
