ITEM: TIMESTEP
0
ITEM: NUMBER OF ATOMS
192
ITEM: BOX BOUNDS xy xz yz pp pp pp
0.0000000000000000e+00 1.2427113533000000e+01 0.0000000000000000e+00
0.0000000000000000e+00 1.3071036338800001e+01 0.0000000000000000e+00
0.0000000000000000e+00 2.1213308334400001e+01 0.0000000000000000e+00
ITEM: ATOMS id xu yu zu fx fy fz
17    0.297262781700000    2.682078702400000    1.000430206500000   -0.122650884091854    0.008542701601982    0.206713169813156
41    3.404041227099999    0.585680473800000    1.000430206500000   -0.122651726007462   -0.008480563759804    0.206649690866470
89    3.404301960299999    3.703913307600000    2.651663541800000    0.017828412353992   -0.065377376973629    0.000158024486154
137    2.498632815300000    2.598692026100000    0.855957012500000   -0.093525901436806   -0.022963903844357    0.124688588082790
21    6.510819237499998    2.682078702400000    1.000430206500000   -0.122698098421097    0.008497178554535    0.206634834408760
169    5.605411198500000    0.669067150100000    0.855957012500000   -0.093465521931648    0.022907443344593    0.124738551676273
185    5.663893132700000    3.963569536000000    2.651663541800000   -0.022834397852421   -0.070318698883057   -0.000013211276382
45    9.617598366399999    0.585680473800000    1.000430206500000   -0.122688844799995   -0.008499488234520    0.206712484359741
93    9.617859099700000    3.703913307600000    2.651663541800000    0.017835142090917   -0.065407119691372    0.000012657139450
141    8.712189954599999    2.598692026100000    0.855957012500000   -0.093409411609173   -0.022934533655643    0.124712243676186
173   11.818968337799999    0.669067150100000    0.855957012500000   -0.093505397439003    0.022933915257454    0.124726139008999
189   11.877449899200000    3.963569536000000    2.651663541800000   -0.022882103919983   -0.070393167436123   -0.000004630171588
43    3.404041227099999    7.121198551700000    1.000430206500000   -0.122664526104927   -0.008503556251526    0.206672936677933
65    0.297523738700000    6.099363946500000    2.651663541800000    0.017839260399342    0.065388888120651    0.000026174820960
121    2.557114749400000    5.839707718100000    2.651663541800000   -0.022941473871469    0.070319160819054   -0.000123230274767
69    6.511080716399999    6.099363946500000    2.651663541800000    0.017795823514462    0.065396964550018    0.000053657218814
171    5.605411198500000    7.204585032000001    0.855957012500000   -0.093443706631660    0.023016296327114    0.124749839305878
47    9.617598366399999    7.121198551700000    1.000430206500000   -0.122599512338638   -0.008543491363525    0.206693574786186
125    8.770671515900000    5.839707718100000    2.651663541800000   -0.022886637598276    0.070331126451492   -0.000033421441913
175   11.818968337799999    7.204585032000001    0.855957012500000   -0.093530833721161    0.022966451942921    0.124707721173763
19    0.297262781700000    9.217596871800000    1.000430206500000   -0.122669607400894    0.008464723825455    0.206652015447617
67    0.297523738700000   12.634882115900002    2.651663541800000    0.017830245196819    0.065393328666687    0.000017930287868
91    3.404301960299999   10.239431477000000    2.651663541800000    0.017867276445031   -0.065393187105656    0.000016437263184
123    2.557114749400000   12.375225508500000    2.651663541800000   -0.022894144058228    0.070331305265427    0.000048211877584
139    2.498632815300000    9.134210391500000    0.855957012500000   -0.093509398400784   -0.022958010435104    0.124744035303593
23    6.510819237499998    9.217596871800000    1.000430206500000   -0.122757501900196    0.008475393056870    0.206733644008636
71    6.511080716399999   12.634882115900002    2.651663541800000    0.017792740836740    0.065416522324085   -0.000034276396036
187    5.663893132700000   10.499088084400002    2.651663541800000   -0.022888492792845   -0.070407554507256   -0.000006633345038
95    9.617859099700000   10.239431477000000    2.651663541800000    0.017837809398770   -0.065379559993744    0.000017568469048
127    8.770671515900000   12.375225508500000    2.651663541800000   -0.022857360541821    0.070287793874741   -0.000059036538005
143    8.712189954599999    9.134210391500000    0.855957012500000   -0.093462072312832   -0.022918820381165    0.124735064804554
191   11.877449899200000   10.499088084400002    2.651663541800000   -0.022958472371101   -0.070277281105518   -0.000045293152652
25    0.297262781700000    2.682078702400000    4.302896728600000   -0.122728124260902    0.008524551987648   -0.206791162490845
57    3.404041227099999    0.585680473800000    4.302896728600000   -0.122613728046417   -0.008449926972389   -0.206633791327477
145    2.498632815300000    2.598692026100000    4.447369986200000   -0.093027442693710   -0.022493325173855   -0.124819211661816
153    3.714923951199999    3.936826339400000    6.159283862799999    0.095129400491714    0.025451429188251    0.116346448659897
29    6.510819237499998    2.682078702400000    4.302896728600000   -0.122515812516212    0.008586868643761   -0.206507205963135
33    5.916293922700000    3.853439467000000    6.303757438599999    0.122236870229244   -0.008845716714859    0.206533521413803
105    5.605411198500000    0.669067150100000    4.447369986200000   -0.093559697270393    0.022993773221970   -0.124698437750340
37   12.129850316399997    3.853439467000000    6.303757438599999    0.122882649302483   -0.008701190352440    0.206923425197601
61    9.617598366399999    0.585680473800000    4.302896728600000   -0.122572019696236   -0.008519604802132   -0.206673175096512
109   11.818968337799999    0.669067150100000    4.447369986200000   -0.093479439616203    0.022936649620533   -0.124739326536655
149    8.712189954599999    2.598692026100000    4.447369986200000   -0.093583479523659   -0.022804595530033   -0.124690584838390
157    9.928480344900001    3.936826339400000    6.159283862799999    0.093392759561539    0.022923834621906    0.124747894704342
49    2.809515539400000    5.949837787100000    6.303757438599999    0.123637095093727    0.008468285202980    0.206232100725174
59    3.404041227099999    7.121198551700000    4.302896728600000   -0.122713774442673   -0.008837744593620   -0.206211581826210
129    0.608145655000000    5.866450914700000    6.159283862799999    0.093192674219608   -0.022974960505962    0.124550655484200
107    5.605411198500000    7.204585032000001    4.447369986200000   -0.093489371240139    0.022871635854244   -0.124613896012306
133    6.821702707300000    5.866450914700000    6.159283862799999    0.093429237604141   -0.022594004869461    0.124512262642384
53    9.023071933099999    5.949837787100000    6.303757438599999    0.122653938829899    0.008460909128189    0.206645935773849
63    9.617598366399999    7.121198551700000    4.302896728600000   -0.122627355158329   -0.008578032255173   -0.206607609987259
111   11.818968337799999    7.204585032000001    4.447369986200000   -0.093467861413956    0.022805429995060   -0.124652005732059
27    0.297262781700000    9.217596871800000    4.302896728600000   -0.122654214501381    0.008503347635269   -0.206606775522232
51    2.809515539400000   12.485355956499999    6.303757438599999    0.122874759137630    0.008939862251282    0.207069784402847
131    0.608145655000000   12.401968705000000    6.159283862799999    0.093427434563637   -0.022802010178566    0.124828070402145
147    2.498632815300000    9.134210391500000    4.447369986200000   -0.093431122601032   -0.022838070988655   -0.124715805053711
155    3.714923951199999   10.472344887900000    6.159283862799999    0.093476943671703    0.022823773324490    0.124677978456020
31    6.510819237499998    9.217596871800000    4.302896728600000   -0.122714698314667    0.008500695228577   -0.206725224852562
35    5.916293922700000   10.388957636400002    6.303757438599999    0.122648440301418   -0.008489280939102    0.206682085990906
135    6.821702707300000   12.401968705000000    6.159283862799999    0.093443512916565   -0.022902451455593    0.124826014041901
39   12.129850316399997   10.388957636400002    6.303757438599999    0.122637897729874   -0.008436053991318    0.206607043743134
55    9.023071933099999   12.485355956499999    6.303757438599999    0.122591018676758    0.008485078811646    0.206632152199745
151    8.712189954599999    9.134210391500000    4.447369986200000   -0.093444056808949   -0.022837184369564   -0.124710679054260
159    9.928480344900001   10.472344887900000    6.159283862799999    0.093479461967945    0.022848024964333    0.124720789492130
73    2.809254619699999    2.831604665700000    7.954990625400001   -0.023462776094675    0.058601289987564   -0.009662365540862
97    3.714923951199999    3.936826339400000    9.740697388000001    0.106902293860912    0.042004823684692   -0.113347277045250
113    3.656442017100000    0.695810490500000    7.954990625400001    0.024280231446028   -0.076691769063473   -0.000358336837962
177    0.549663671100000    2.571948633400000    7.954990625400001    0.016762623563409    0.069863192737103   -0.000062577193603
9    5.916293922700000    3.853439467000000    9.606223812200000    0.117822393774986   -0.008003249764442   -0.206450998783112
81    5.916033189399998    0.436154327500000    7.954990625400001   -0.018274897709489   -0.064990490674973    0.000013921875507
181    6.763220400299998    2.571948633400000    7.954990625400001    0.023224774748087    0.070583403110504    0.000232629012316
13   12.129850316399997    3.853439467000000    9.606223812200000    0.122734941542149   -0.008598953485489   -0.207485869526863
77    9.022811199800000    2.831604665700000    7.954990625400001   -0.018000070005655    0.065278783440590   -0.000234443694353
85   12.129589583100000    0.436154327500000    7.954990625400001   -0.017748400568962   -0.065015107393265   -0.000070258654887
101    9.928480344900001    3.936826339400000    9.750697388000001    0.094011753797531    0.023882701992989   -0.125988453626633
117    9.869998783600000    0.695810490500000    7.954990625400001    0.022987302392721   -0.070184685289860    0.000025814399123
1    2.809515539400000    5.949837787100000    9.606223812200000    0.124361969530582    0.003919392824173   -0.206084996461868
115    3.656442017100000    7.231328999700000    7.954990625400001    0.022330004721880   -0.070116192102432    0.000355106778443
161    0.608145655000000    5.866450914700000    9.750697388000001    0.094300627708435   -0.023114830255508   -0.124789185822010
83    5.916033189399998    6.971672392300000    7.954990625400001   -0.017677845433354   -0.065185591578484   -0.000335721299052
165    6.821702707300000    5.866450914700000    9.750697388000001    0.093184463679790   -0.023727491497993   -0.124776564538479
5    9.023071933099999    5.949837787100000    9.606223812200000    0.122671447694302    0.008723124861717   -0.206702068448067
87   12.129589583100000    6.971672392300000    7.954990625400001   -0.017847560346127   -0.065479546785355   -0.000018719871150
119    9.869998783600000    7.231328999700000    7.954990625400001    0.022900257259607   -0.070300862193108   -0.000011806841940
3    2.809515539400000   12.485355956499999    9.606223812200000    0.122806452214718    0.009217068552971   -0.207560747861862
75    2.809254619699999    9.367123031200000    7.954990625400001   -0.017765155062079    0.065318576991558    0.000053379219025
99    3.714923951199999   10.472344887900000    9.750697388000001    0.093566402792931    0.023407690227032   -0.124946296215057
163    0.608145655000000   12.401968705000000    9.750697388000001    0.093236371874809   -0.022906273603439   -0.125015571713448
179    0.549663671100000    9.107466423800000    7.954990625400001    0.022946115583181    0.070293016731739   -0.000052831368521
11    5.916293922700000   10.388957636400002    9.606223812200000    0.122678749263287   -0.008470043540001   -0.206736475229263
167    6.821702707300000   12.401968705000000    9.750697388000001    0.093580089509487   -0.023203879594803   -0.125006198883057
183    6.763220400299998    9.107466423800000    7.954990625400001    0.022916467860341    0.070349603891373   -0.000004844972864
7    9.023071933099999   12.485355956499999    9.606223812200000    0.122746653854847    0.008533149957657   -0.206601664423943
15   12.129850316399997   10.388957636400002    9.606223812200000    0.122625112533569   -0.008518487215042   -0.206629082560539
79    9.022811199800000    9.367123031200000    7.954990625400001   -0.017805239185691    0.065383188426495   -0.000006354879588
103    9.928480344900001   10.472344887900000    9.750697388000001    0.093427889049053    0.022835366427898   -0.124745786190033
18    0.297262781700000    2.682078702400000   11.607084522199999   -0.114715933799744    0.008021041750908    0.206661313772202
42    3.404041227099999    0.585680473800000   11.607084522199999   -0.125375926494598   -0.000465050339699    0.206121608614922
90    3.404301960299999    3.703913307600000   13.258317709000000    0.016433075070381   -0.066908732056618   -0.006021320819855
138    2.498632815300000    2.598692026100000   11.462611582800001   -0.102599777281284   -0.033934667706490    0.137483969330788
22    6.510819237499998    2.682078702400000   11.607084522199999   -0.120193094015121    0.007672891020775    0.207548081874847
170    5.605411198500000    0.669067150100000   11.462611582800001   -0.093775130808353    0.022246159613132    0.124553069472313
186    5.663893132700000    3.963569536000000   13.258317709000000   -0.023991856724024   -0.069653488695621    0.000166403129697
46    9.617598366399999    0.585680473800000   11.607084522199999   -0.122513443231583   -0.009029284119606    0.206721901893616
94    9.617859099700000    3.703913307600000   13.258317709000000    0.017867250367999   -0.065171971917152    0.000337579287589
142    8.712189954599999    2.598692026100000   11.462611582800001   -0.093445070087910   -0.023709945380688    0.125773400068283
174   11.818968337799999    0.669067150100000   11.462611582800001   -0.093541420996189    0.023311980068684    0.124762356281281
190   11.877449899200000    3.963569536000000   13.258317709000000   -0.022960932925344   -0.070613883435726   -0.000217406079173
44    3.404041227099999    7.121198551700000   11.607084522199999   -0.122981607913971   -0.008073106408119    0.206743687391281
66    0.297523738700000    6.099363946500000   13.258317709000000    0.017810788005590    0.065440766513348    0.000012646429241
122    2.557114749400000    5.839707718100000   13.258317709000000   -0.022977612912655    0.069582968950272    0.000625277229119
70    6.511080716399999    6.099363946500000   13.258317709000000    0.017927020788193    0.065488830208778    0.000048668123782
172    5.605411198500000    7.204585032000001   11.462611582800001   -0.092443704605103    0.023020483553410    0.124563895165920
48    9.617598366399999    7.121198551700000   11.607084522199999   -0.122676700353622   -0.008481591939926    0.206703126430511
126    8.770671515900000    5.839707718100000   13.258317709000000   -0.022676553577185    0.070351228117943    0.000039701815695
176   11.818968337799999    7.204585032000001   11.462611582800001   -0.093567855656147    0.023016050457954    0.124773472547531
20    0.297262781700000    9.217596871800000   11.607084522199999   -0.122796401381493    0.008510231971741    0.206766128540039
68    0.297523738700000   12.634882115900002   13.258317709000000    0.017609018832445    0.065076410770416    0.000200048554689
92    3.404301960299999   10.239431477000000   13.258317709000000    0.017790853977203   -0.065378263592720   -0.000009165258234
124    2.557114749400000   12.375225508500000   13.258317709000000   -0.022587969899178    0.070220082998276    0.000048919406254
140    2.498632815300000    9.134210391500000   11.462611582800001   -0.093954309821129   -0.022609293460846    0.124951884150505
24    6.510819237499998    9.217596871800000   11.607084522199999   -0.122429482638836    0.008788257837296    0.206699714064598
72    6.511080716399999   12.634882115900002   13.258317709000000    0.017885589972138    0.065378472208977    0.000087190419436
188    5.663893132700000   10.499088084400002   13.258317709000000   -0.022849466651678   -0.070371508598328    0.000055729411542
96    9.617859099700000   10.239431477000000   13.258317709000000    0.017811609432101   -0.065378651022911    0.000005582347512
128    8.770671515900000   12.375225508500000   13.258317709000000   -0.022875037044287    0.070320039987564    0.000056215551012
144    8.712189954599999    9.134210391500000   11.462611582800001   -0.093474850058556   -0.022954545915127    0.124790325760841
192   11.877449899200000   10.499088084400002   13.258317709000000   -0.022882107645273   -0.070426978170872    0.000023374333978
26    0.297262781700000    2.682078702400000   14.909550895800001   -0.122740820050240    0.008571371436119   -0.206684663891792
58    3.404041227099999    0.585680473800000   14.909550895800001   -0.122750841081142   -0.008528009057045   -0.206698864698410
146    2.498632815300000    2.598692026100000   15.054023835200001   -0.093218289315701   -0.022623367607594   -0.124790243804455
154    3.714923951199999    3.936826339400000   16.765937393600002    0.093480274081230    0.022947736084461    0.124582551419735
30    6.510819237499998    2.682078702400000   14.909550895800001   -0.122392833232880    0.008179470896721   -0.206467285752296
34    5.916293922700000    3.853439467000000   16.910411605800000    0.122705265879631   -0.008497104048729    0.206741362810135
106    5.605411198500000    0.669067150100000   15.054023835200001   -0.093429036438465    0.023004293441772   -0.124617189168930
38   12.129850316399997    3.853439467000000   16.910411605800000    0.122675158083439   -0.008515745401382    0.206595629453659
62    9.617598366399999    0.585680473800000   14.909550895800001   -0.122687846422195   -0.008461445569992   -0.206725448369980
110   11.818968337799999    0.669067150100000   15.054023835200001   -0.093605257570744    0.022953025996685   -0.124635919928551
150    8.712189954599999    2.598692026100000   15.054023835200001   -0.093569047749043   -0.022961899638176   -0.124688550829887
158    9.928480344900001    3.936826339400000   16.765937393600002    0.093458794057369    0.022969357669353    0.124736435711384
50    2.809515539400000    5.949837787100000   16.910411605800000    0.122646063566208    0.008528679609299    0.206703782081604
60    3.404041227099999    7.121198551700000   14.909550895800001   -0.122618883848190   -0.008379429578781   -0.206656277179718
130    0.608145655000000    5.866450914700000   16.765937393600002    0.093547053635120   -0.022900477051735    0.124777607619762
108    5.605411198500000    7.204585032000001   15.054023835200001   -0.093611471354961    0.023031868040562   -0.124686531722546
134    6.821702707300000    5.866450914700000   16.765937393600002    0.093521326780319   -0.022961288690567    0.124767772853374
54    9.023071933099999    5.949837787100000   16.910411605800000    0.122637659311295    0.008446365594864    0.206732511520386
64    9.617598366399999    7.121198551700000   14.909550895800001   -0.122612789273262   -0.008463665843010   -0.206743210554123
112   11.818968337799999    7.204585032000001   15.054023835200001   -0.093533128499985    0.023024730384350   -0.124745011329651
28    0.297262781700000    9.217596871800000   14.909550895800001   -0.122642457485199    0.008451476693153   -0.206723660230637
52    2.809515539400000   12.485355956499999   16.910411605800000    0.122675195336342    0.008501946926117    0.206593871116638
132    0.608145655000000   12.401968705000000   16.765937393600002    0.093515701591969   -0.023044466972351    0.124827727675438
148    2.498632815300000    9.134210391500000   15.054023835200001   -0.093488641083241   -0.023034699261189   -0.124750420451164
156    3.714923951199999   10.472344887900000   16.765937393600002    0.093527823686600    0.022918097674847    0.124771282076836
32    6.510819237499998    9.217596871800000   14.909550895800001   -0.122623994946480    0.008486464619637   -0.206676989793777
36    5.916293922700000   10.388957636400002   16.910411605800000    0.122630149126053   -0.008455187082291    0.206719160079956
136    6.821702707300000   12.401968705000000   16.765937393600002    0.093574345111847   -0.023046374320984    0.124834142625332
40   12.129850316399997   10.388957636400002   16.910411605800000    0.122640363872051   -0.008444070816040    0.206732839345932
56    9.023071933099999   12.485355956499999   16.910411605800000    0.122627355158329    0.008455529808998    0.206732660531998
152    8.712189954599999    9.134210391500000   15.054023835200001   -0.093514882028103   -0.022973537445068   -0.124743685126305
160    9.928480344900001   10.472344887900000   16.765937393600002    0.093502528965473    0.022963151335716    0.124744549393654
74    2.809254619699999    2.831604665700000   18.561644792599999   -0.017799615859985    0.065396405756474    0.000019502360374
98    3.714923951199999    3.936826339400000   20.357352191600000    0.093514233827591    0.022964328527451   -0.124767787754536
114    3.656442017100000    0.695810490500000   18.561644792599999    0.022881006821990   -0.070350036025047    0.000033431220800
178    0.549663671100000    2.571948633400000   18.561644792599999    0.022867957130075    0.070338845252991    0.000026498921216
10    5.916293922700000    3.853439467000000   20.212877979400002    0.122626185417175   -0.008451625704765   -0.206715494394302
82    5.916033189399998    0.436154327500000   18.561644792599999   -0.017808446660638   -0.065396502614021    0.000006811693311
182    6.763220400299998    2.571948633400000   18.561644792599999    0.022879935801029    0.070356167852879    0.000011112540960
14   12.129850316399997    3.853439467000000   20.212877979400002    0.122634202241898   -0.008477285504341   -0.206728070974350
78    9.022811199800000    2.831604665700000   18.561644792599999   -0.017800047993660    0.065398640930653   -0.000012197531760
86   12.129589583100000    0.436154327500000   18.561644792599999   -0.017800664529204   -0.065405130386353    0.000005663466254
102    9.928480344900001    3.936826339400000   20.357352191600000    0.093482546508312    0.022951893508434   -0.124761894345284
118    9.869998783600000    0.695810490500000   18.561644792599999    0.022860839962959   -0.070358552038670   -0.000015037134290
2    2.809515539400000    5.949837787100000   20.212877979400002    0.122638039290905    0.008460670709610   -0.206713482737541
116    3.656442017100000    7.231328999700000   18.561644792599999    0.022865265607834   -0.070354938507080   -0.000009709508959
162    0.608145655000000    5.866450914700000   20.357352191600000    0.093497335910797   -0.022945672273636   -0.124764420092106
84    5.916033189399998    6.971672392300000   18.561644792599999   -0.017804574221373   -0.065397180616856   -0.000013222679627
166    6.821702707300000    5.866450914700000   20.357352191600000    0.093504391610622   -0.022993505001068   -0.124788098037243
6    9.023071933099999    5.949837787100000   20.212877979400002    0.122630208730698    0.008456721901894   -0.206721290946007
88   12.129589583100000    6.971672392300000   18.561644792599999   -0.017805894836783   -0.065394610166550   -0.000007233721590
120    9.869998783600000    7.231328999700000   18.561644792599999    0.022862117737532   -0.070359572768211   -0.000035708770156
4    2.809515539400000   12.485355956499999   20.212877979400002    0.122630894184113    0.008453294634819   -0.206717967987061
76    2.809254619699999    9.367123031200000   18.561644792599999   -0.017800712957978    0.065400734543800   -0.000001100357622
100    3.714923951199999   10.472344887900000   20.357352191600000    0.093525566160679    0.022986449301243   -0.124817416071892
164    0.608145655000000   12.401968705000000   20.357352191600000    0.093514136970043   -0.022994495928288   -0.124806948006153
180    0.549663671100000    9.107466423800000   18.561644792599999    0.022867308929563    0.070349484682083   -0.000024223932996
12    5.916293922700000   10.388957636400002   20.212877979400002    0.122628033161163   -0.008458271622658   -0.206718415021896
168    6.821702707300000   12.401968705000000   20.357352191600000    0.093492284417152   -0.022972285747528   -0.124784842133522
184    6.763220400299998    9.107466423800000   18.561644792599999    0.022854633629322    0.070369891822338   -0.000014940509573
8    9.023071933099999   12.485355956499999   20.212877979400002    0.122642479836941    0.008453667163849   -0.206723123788834
16   12.129850316399997   10.388957636400002   20.212877979400002    0.122637085616589   -0.008457615971565   -0.206706196069717
80    9.022811199800000    9.367123031200000   18.561644792599999   -0.017792202532291    0.065399199724197    0.000000155996531
104    9.928480344900001   10.472344887900000   20.357352191600000    0.093515597283840    0.022983297705650   -0.124802328646183
