ITEM: TIMESTEP
0
ITEM: NUMBER OF ATOMS
192
ITEM: BOX BOUNDS xy xz yz pp pp pp
0.0000000000000000e+00 1.2427113533000000e+01 0.0000000000000000e+00
0.0000000000000000e+00 1.3071036338800001e+01 0.0000000000000000e+00
0.0000000000000000e+00 2.1213308334400001e+01 0.0000000000000000e+00
ITEM: ATOMS id xu yu zu fx fy fz
17    0.297262781700000    2.682078702400000    1.000430206500000   -0.122645825147629    0.008547917008400    0.206715881824493
41    3.404041227099999    0.585680473800000    1.000430206500000   -0.122662335634232   -0.008477598428726    0.206647783517838
89    3.404301960299999    3.703913307600000    2.651663541800000    0.017849467694759   -0.065401256084442   -0.000047338893637
137    2.498632815300000    2.598692026100000    0.855957012500000   -0.093511253595352   -0.022949390113354    0.124723441898823
21    6.510819237499998    2.682078702400000    1.000430206500000   -0.122715115547180    0.008524373173714    0.206657975912094
169    5.605411198500000    0.669067150100000    0.855957012500000   -0.093467399477959    0.022910930216312    0.124740846455097
185    5.663893132700000    3.963569536000000    2.651663541800000   -0.022890839725733   -0.070321351289749    0.000017976388335
45    9.617598366399999    0.585680473800000    1.000430206500000   -0.122685827314854   -0.008510306477547    0.206703722476959
93    9.617859099700000    3.703913307600000    2.651663541800000    0.017857078462839   -0.065380111336708   -0.000017016893253
141    8.712189954599999    2.598692026100000    0.855957012500000   -0.093413606286049   -0.022938162088394    0.124715678393841
173   11.818968337799999    0.669067150100000    0.855957012500000   -0.093508541584015    0.022932671010494    0.124724864959717
189   11.877449899200000    3.963569536000000    2.651663541800000   -0.022877041250467   -0.070367217063904   -0.000026791924029
43    3.404041227099999    7.121198551700000    1.000430206500000   -0.122671440243721   -0.008509650826454    0.206677854061127
65    0.297523738700000    6.099363946500000    2.651663541800000    0.017817853018641    0.065400376915932    0.000025738030672
121    2.557114749400000    5.839707718100000    2.651663541800000   -0.022904913872480    0.070295639336109    0.000015197088942
69    6.511080716399999    6.099363946500000    2.651663541800000    0.017806619405746    0.065381996333599    0.000001156702638
171    5.605411198500000    7.204585032000001    0.855957012500000   -0.093427814543247    0.023018755018711    0.124724276363850
47    9.617598366399999    7.121198551700000    1.000430206500000   -0.122601613402367   -0.008543580770493    0.206690758466721
125    8.770671515900000    5.839707718100000    2.651663541800000   -0.022880824282765    0.070339329540730   -0.000013284385204
175   11.818968337799999    7.204585032000001    0.855957012500000   -0.093528680503368    0.022962927818298    0.124725937843323
19    0.297262781700000    9.217596871800000    1.000430206500000   -0.122674398124218    0.008465200662613    0.206645444035530
67    0.297523738700000   12.634882115900002    2.651663541800000    0.017827726900578    0.065391734242439    0.000010890420526
91    3.404301960299999   10.239431477000000    2.651663541800000    0.017872594296932   -0.065388180315495   -0.000015639589037
123    2.557114749400000   12.375225508500000    2.651663541800000   -0.022886246442795    0.070333227515221    0.000045389504521
139    2.498632815300000    9.134210391500000    0.855957012500000   -0.093513891100883   -0.022941142320633    0.124733209609985
23    6.510819237499998    9.217596871800000    1.000430206500000   -0.122751280665398    0.008473530411720    0.206725537776947
71    6.511080716399999   12.634882115900002    2.651663541800000    0.017792178317904    0.065419629216194   -0.000009111128747
187    5.663893132700000   10.499088084400002    2.651663541800000   -0.022898076102138   -0.070383578538895   -0.000028321985155
95    9.617859099700000   10.239431477000000    2.651663541800000    0.017838416621089   -0.065370112657547    0.000009282026440
127    8.770671515900000   12.375225508500000    2.651663541800000   -0.022852782160044    0.070303261280060   -0.000044132582843
143    8.712189954599999    9.134210391500000    0.855957012500000   -0.093463368713856   -0.022921226918697    0.124730244278908
191   11.877449899200000   10.499088084400002    2.651663541800000   -0.022952364757657   -0.070284686982632   -0.000039116155676
25    0.297262781700000    2.682078702400000    4.302896728600000   -0.122692644596100    0.008499190211296   -0.206670343875885
57    3.404041227099999    0.585680473800000    4.302896728600000   -0.122612833976746   -0.008534833788872   -0.206728428602219
145    2.498632815300000    2.598692026100000    4.447369986200000   -0.093571908771992   -0.023018166422844   -0.124834500253201
153    3.714923951199999    3.936826339400000    6.159283862799999    0.093613922595978    0.023409582674503    0.125682517886162
29    6.510819237499998    2.682078702400000    4.302896728600000   -0.122740387916565    0.008556380867958   -0.206645905971527
33    5.916293922700000    3.853439467000000    6.303757438599999    0.122400030493736   -0.008385077118874    0.206933170557022
105    5.605411198500000    0.669067150100000    4.447369986200000   -0.093540668487549    0.022949330508709   -0.124735280871391
37   12.129850316399997    3.853439467000000    6.303757438599999    0.128632798790932   -0.004508957266808    0.212763369083405
61    9.617598366399999    0.585680473800000    4.302896728600000   -0.122583851218224   -0.008555859327316   -0.206624865531921
109   11.818968337799999    0.669067150100000    4.447369986200000   -0.093541450798512    0.022935077548027   -0.124766521155834
149    8.712189954599999    2.598692026100000    4.447369986200000   -0.093467980623245   -0.022945001721382   -0.124761238694191
157    9.928480344900001    3.936826339400000    6.159283862799999    0.093401663005352    0.022970363497734    0.124679937958717
49    2.809515539400000    5.949837787100000    6.303757438599999    0.123604528605938    0.008741274476051    0.206243872642517
59    3.404041227099999    7.121198551700000    4.302896728600000   -0.122653260827065   -0.008689045906067   -0.206142961978912
129    0.608145655000000    5.866450914700000    6.159283862799999    0.094145178794861   -0.023058518767357    0.124348923563957
107    5.605411198500000    7.204585032000001    4.447369986200000   -0.093717992305756    0.022799909114838   -0.124535992741585
133    6.821702707300000    5.866450914700000    6.159283862799999    0.093299932777882   -0.023029237985611    0.124945819377899
53    9.023071933099999    5.949837787100000    6.303757438599999    0.122722521424294    0.008563801646233    0.206744790077209
63    9.617598366399999    7.121198551700000    4.302896728600000   -0.122699610888958   -0.008498817682266   -0.206703454256058
111   11.818968337799999    7.204585032000001    4.447369986200000   -0.093525990843773    0.023024521768093   -0.124880507588387
27    0.297262781700000    9.217596871800000    4.302896728600000   -0.122710913419724    0.008541047573090   -0.206529721617699
51    2.809515539400000   12.485355956499999    6.303757438599999    0.122549787163734    0.008539274334908    0.206598043441772
131    0.608145655000000   12.401968705000000    6.159283862799999    0.093420676887035   -0.022995613515377    0.124778412282467
147    2.498632815300000    9.134210391500000    4.447369986200000   -0.093433678150177   -0.022983230650425   -0.124647907912731
155    3.714923951199999   10.472344887900000    6.159283862799999    0.093437440693378    0.022556714713573    0.124925889074802
31    6.510819237499998    9.217596871800000    4.302896728600000   -0.122689515352249    0.008568897843361   -0.206661328673363
35    5.916293922700000   10.388957636400002    6.303757438599999    0.122705250978470   -0.008540689945221    0.206655547022820
135    6.821702707300000   12.401968705000000    6.159283862799999    0.093413501977921   -0.022921942174435    0.124779321253300
39   12.129850316399997   10.388957636400002    6.303757438599999    0.122666820883751   -0.008485540747643    0.206582725048065
55    9.023071933099999   12.485355956499999    6.303757438599999    0.122707679867744    0.008570045232773    0.206610053777695
151    8.712189954599999    9.134210391500000    4.447369986200000   -0.093427352607250   -0.022935137152672   -0.124702692031860
159    9.928480344900001   10.472344887900000    6.159283862799999    0.093525722622871    0.022875629365444    0.124728843569756
73    2.809254619699999    2.831604665700000    7.954990625400001   -0.017883135005832    0.065384685993195   -0.000233693514019
97    3.714923951199999    3.936826339400000    9.750697388000001    0.104123145341873    0.006429597735405   -0.126403361558914
113    3.656442017100000    0.695810490500000    7.954990625400001    0.023034857586026   -0.069832757115364    0.000150059349835
177    0.549663671100000    2.571948633400000    7.954990625400001    0.023531369864941    0.069143749773502   -0.001019182149321
9    5.916293922700000    3.853439467000000    9.606223812200000    0.122809641063213   -0.008204013109207   -0.206756681203842
81    5.916033189399998    0.436154327500000    7.954990625400001   -0.017761247232556   -0.065450869500637    0.000004466157407
181    6.763220400299998    2.571948633400000    7.954990625400001    0.022508250549436    0.070690222084522    0.000476451124996
13   12.129850316399997    3.853439467000000    9.606223812200000    0.122814849019051   -0.007063731551170   -0.206206172704697
77    9.022811199800000    2.831604665700000    7.954990625400001   -0.017654161900282    0.065450884401798    0.000096480362117
85   12.129589583100000    0.436154327500000    7.954990625400001   -0.017809124663472   -0.065320804715157    0.000014713637938
101    9.928480344900001    3.936826339400000    9.750697388000001    0.091880254447460    0.022738322615623   -0.124747276306152
117    9.869998783600000    0.695810490500000    7.954990625400001    0.022855564951897   -0.070288076996803    0.000011079246178
1    2.819515539399999    5.949837787100000    9.606223812200000    0.058866880834103    0.011132612824440   -0.201077848672867
115    3.656442017100000    7.231328999700000    7.954990625400001    0.029280483722687   -0.060753937810659   -0.012226179242134
161    0.608145655000000    5.866450914700000    9.750697388000001    0.135182395577431   -0.014208897948265   -0.120129659771919
83    5.916033189399998    6.971672392300000    7.954990625400001   -0.018434792757034   -0.065532557666302    0.000391861889511
165    6.821702707300000    5.866450914700000    9.750697388000001    0.092905640602112   -0.023177988827229   -0.124770708382130
5    9.023071933099999    5.949837787100000    9.606223812200000    0.123044580221176    0.008253604173660   -0.206851601600647
87   12.129589583100000    6.971672392300000    7.954990625400001   -0.017357522621751   -0.066400766372681    0.001639522379264
119    9.869998783600000    7.231328999700000    7.954990625400001    0.022087994962931   -0.070179015398026   -0.000249706208706
3    2.809515539400000   12.485355956499999    9.606223812200000    0.122597932815552    0.008378922939301   -0.206558033823967
75    2.809254619699999    9.367123031200000    7.954990625400001   -0.017900848761201    0.065542928874493    0.000267163384706
99    3.714923951199999   10.472344887900000    9.750697388000001    0.093336381018162    0.022209055721760   -0.124848619103432
163    0.608145655000000   12.401968705000000    9.750697388000001    0.093411102890968   -0.022936165332794   -0.124790377914906
179    0.549663671100000    9.107466423800000    7.954990625400001    0.023366406559944    0.070932552218437   -0.000555504346266
11    5.916293922700000   10.388957636400002    9.606223812200000    0.122638478875160   -0.008608430624008   -0.206455245614052
167    6.821702707300000   12.401968705000000    9.750697388000001    0.093473337590694   -0.022888891398907   -0.124718666076660
183    6.763220400299998    9.107466423800000    7.954990625400001    0.022597234696150    0.070023067295551   -0.000087370164692
7    9.023071933099999   12.485355956499999    9.606223812200000    0.122666805982590    0.008552715182304   -0.206689760088921
15   12.129850316399997   10.388957636400002    9.606223812200000    0.122637048363686   -0.008455082774162   -0.206661075353622
79    9.022811199800000    9.367123031200000    7.954990625400001   -0.017753763124347    0.065393075346947   -0.000022143591195
103    9.928480344900001   10.472344887900000    9.750697388000001    0.093495965003967    0.022937104105949   -0.124789483845234
18    0.297262781700000    2.682078702400000   11.607084522199999   -0.122875422239304    0.009115785360336    0.206261247396469
42    3.404041227099999    0.585680473800000   11.607084522199999   -0.122739791870117   -0.008670702576637    0.206825524568558
90    3.404301960299999    3.703913307600000   13.258317709000000    0.017917919903994   -0.065208002924919   -0.000254741404206
138    2.498632815300000    2.598692026100000   11.462611582800001   -0.094310253858566   -0.024826139211655    0.127422556281090
22    6.510819237499998    2.682078702400000   11.607084522199999   -0.122596368193626    0.008223414421082    0.207061126828194
170    5.605411198500000    0.669067150100000   11.462611582800001   -0.093482963740826    0.023299761116505    0.124557770788670
186    5.663893132700000    3.963569536000000   13.258317709000000   -0.023026898503304   -0.070498190820217   -0.000230871140957
46    9.617598366399999    0.585680473800000   11.607084522199999   -0.122659243643284   -0.008518457412720    0.206705689430237
94    9.617859099700000    3.703913307600000   13.258317709000000    0.017822293564677   -0.065418660640717   -0.000012573087588
142    8.712189954599999    2.598692026100000   11.462611582800001   -0.093982361257076   -0.022698953747749    0.124526239931583
174   11.818968337799999    0.669067150100000   11.462611582800001   -0.093415036797523    0.022548466920853    0.124923065304756
190   11.877449899200000    3.963569536000000   13.258317709000000   -0.022972224280238   -0.070516794919968    0.000601476989686
44    3.404041227099999    7.121198551700000   11.607084522199999   -0.121632307767868   -0.006154254078865    0.209789633750916
66    0.297523738700000    6.099363946500000   13.258317709000000    0.017763933166862    0.065039440989494    0.000585292465985
122    2.557114749400000    5.839707718100000   13.258317709000000   -0.022722214460373    0.070554226636887    0.000809837947600
70    6.511080716399999    6.099363946500000   13.258317709000000    0.017502631992102    0.065995022654533   -0.000805828720331
172    5.605411198500000    7.204585032000001   11.462611582800001   -0.098449356853962    0.019184634089470    0.121759444475174
48    9.617598366399999    7.121198551700000   11.607084522199999   -0.122625157237053   -0.008543908596039    0.206614017486572
126    8.770671515900000    5.839707718100000   13.258317709000000   -0.022788776084781    0.070266425609589    0.000139050185680
176   11.818968337799999    7.204585032000001   11.462611582800001   -0.087653234601021    0.017636835575104    0.117057941854000
20    0.297262781700000    9.217596871800000   11.607084522199999   -0.122755154967308    0.008054822683334    0.206486016511917
68    0.297523738700000   12.634882115900002   13.258317709000000    0.017786050215364    0.065381459891796   -0.000011808238924
92    3.404301960299999   10.239431477000000   13.258317709000000    0.017779231071472   -0.065183356404305    0.000066231703386
124    2.557114749400000   12.375225508500000   13.258317709000000   -0.022879764437675    0.070396713912487   -0.000006272481187
140    2.498632815300000    9.134210391500000   11.462611582800001   -0.093174532055855   -0.023064874112606    0.125013157725334
24    6.510819237499998    9.217596871800000   11.607084522199999   -0.122542463243008    0.008871242403984    0.206516414880753
72    6.511080716399999   12.634882115900002   13.258317709000000    0.017820859327912    0.065383814275265    0.000015339814126
188    5.663893132700000   10.499088084400002   13.258317709000000   -0.022872561588883   -0.070227421820164    0.000112423207611
96    9.617859099700000   10.239431477000000   13.258317709000000    0.017861498519778   -0.065440967679024   -0.000035660275898
128    8.770671515900000   12.375225508500000   13.258317709000000   -0.022897392511368    0.070341713726521    0.000051636248827
144    8.712189954599999    9.134210391500000   11.462611582800001   -0.093324504792690   -0.022770866751671    0.124783903360367
192   11.877449899200000   10.499088084400002   13.258317709000000   -0.022881865501404   -0.070313304662704    0.000112375193567
26    0.297262781700000    2.682078702400000   14.909550895800001   -0.122618444263935    0.008473038673401   -0.206743106245995
58    3.404041227099999    0.585680473800000   14.909550895800001   -0.122670836746693   -0.008420214056969   -0.206732451915741
146    2.498632815300000    2.598692026100000   15.054023835200001   -0.093551337718964   -0.023003660142422   -0.124767810106277
154    3.714923951199999    3.936826339400000   16.765937393600002    0.093501955270767    0.022964857518673    0.124779097735882
30    6.510819237499998    2.682078702400000   14.909550895800001   -0.122619815170765    0.008426502346992   -0.206707373261452
34    5.916293922700000    3.853439467000000   16.910411605800000    0.122639983892441   -0.008439749479294    0.206729903817177
106    5.605411198500000    0.669067150100000   15.054023835200001   -0.093497432768345    0.022972449660301   -0.124740451574326
38   12.129850316399997    3.853439467000000   16.910411605800000    0.122639119625092   -0.008454322814941    0.206740796566010
62    9.617598366399999    0.585680473800000   14.909550895800001   -0.122622609138489   -0.008447512984276   -0.206728816032410
110   11.818968337799999    0.669067150100000   15.054023835200001   -0.093507967889309    0.022986054420471   -0.124744631350040
150    8.712189954599999    2.598692026100000   15.054023835200001   -0.093515634536743   -0.022992700338364   -0.124733664095402
158    9.928480344900001    3.936826339400000   16.765937393600002    0.093512833118439    0.022978797554970    0.124754928052425
50    2.809515539400000    5.949837787100000   16.910411605800000    0.122615791857243    0.008431047201157    0.206782490015030
60    3.404041227099999    7.121198551700000   14.909550895800001   -0.122670888900757   -0.008569359779358   -0.207059308886528
130    0.608145655000000    5.866450914700000   16.765937393600002    0.093489333987236   -0.022988960146904    0.124819092452526
108    5.605411198500000    7.204585032000001   15.054023835200001   -0.093496985733509    0.023028545081615   -0.124529279768467
134    6.821702707300000    5.866450914700000   16.765937393600002    0.093533240258694   -0.022985637187958    0.124775066971779
54    9.023071933099999    5.949837787100000   16.910411605800000    0.122626774013042    0.008456572890282    0.206734597682953
64    9.617598366399999    7.121198551700000   14.909550895800001   -0.122681386768818   -0.008445382118225   -0.206683397293091
112   11.818968337799999    7.204585032000001   15.054023835200001   -0.093486025929451    0.022923141717911   -0.124749183654785
28    0.297262781700000    9.217596871800000   14.909550895800001   -0.122611187398434    0.008504405617714   -0.206723809242249
52    2.809515539400000   12.485355956499999   16.910411605800000    0.122629784047604    0.008452191948891    0.206730216741562
132    0.608145655000000   12.401968705000000   16.765937393600002    0.093503147363663   -0.022966325283051    0.124745622277260
148    2.498632815300000    9.134210391500000   15.054023835200001   -0.093512199819088   -0.022956483066082   -0.124821066856384
156    3.714923951199999   10.472344887900000   16.765937393600002    0.093513943254948    0.023006409406662    0.124788746237755
32    6.510819237499998    9.217596871800000   14.909550895800001   -0.122653618454933    0.008385628461838   -0.206850558519363
36    5.916293922700000   10.388957636400002   16.910411605800000    0.122640609741211   -0.008453667163849    0.206746816635132
136    6.821702707300000   12.401968705000000   16.765937393600002    0.093505002558231   -0.022964760661125    0.124753504991531
40   12.129850316399997   10.388957636400002   16.910411605800000    0.122637845575809   -0.008447751402855    0.206730186939240
56    9.023071933099999   12.485355956499999   16.910411605800000    0.122639298439026    0.008452489972115    0.206729352474213
152    8.712189954599999    9.134210391500000   15.054023835200001   -0.093542054295540   -0.022988393902779   -0.124724596738815
160    9.928480344900001   10.472344887900000   16.765937393600002    0.093497797846794    0.022957153618336    0.124741151928902
74    2.809254619699999    2.831604665700000   18.561644792599999   -0.017800811678171    0.065399743616581    0.000000671949238
98    3.714923951199999    3.936826339400000   20.357352191600000    0.093521706759930    0.022977739572525   -0.124799259006977
114    3.656442017100000    0.695810490500000   18.561644792599999    0.022866174578667   -0.070360556244850   -0.000025415094569
178    0.549663671100000    2.571948633400000   18.561644792599999    0.022864665836096    0.070357404649258   -0.000022470951080
10    5.916293922700000    3.853439467000000   20.212877979400002    0.122626587748528   -0.008452191948891   -0.206707417964935
82    5.916033189399998    0.436154327500000   18.561644792599999   -0.017804428935051   -0.065397560596466   -0.000005616806448
182    6.763220400299998    2.571948633400000   18.561644792599999    0.022864341735840    0.070359706878662   -0.000018522376195
14   12.129850316399997    3.853439467000000   20.212877979400002    0.122630998492241   -0.008467346429825   -0.206727653741837
78    9.022811199800000    2.831604665700000   18.561644792599999   -0.017802488058805    0.065393298864365   -0.000002947170287
86   12.129589583100000    0.436154327500000   18.561644792599999   -0.017800455912948   -0.065403074026108    0.000001597390565
102    9.928480344900001    3.936826339400000   20.357352191600000    0.093493334949017    0.022951394319534   -0.124771878123283
118    9.869998783600000    0.695810490500000   18.561644792599999    0.022870054468513   -0.070353545248508   -0.000024056062102
2    2.809515539400000    5.949837787100000   20.212877979400002    0.122636586427689    0.008451282978058   -0.206715464591980
116    3.656442017100000    7.231328999700000   18.561644792599999    0.022850453853607   -0.070370599627495   -0.000014395453036
162    0.608145655000000    5.866450914700000   20.357352191600000    0.093492731451988   -0.022956289350986   -0.124773785471916
84    5.916033189399998    6.971672392300000   18.561644792599999   -0.017798613756895   -0.065397441387177   -0.000005056017471
166    6.821702707300000    5.866450914700000   20.357352191600000    0.093519829213619   -0.023000568151474   -0.124796472489834
6    9.023071933099999    5.949837787100000   20.212877979400002    0.122627265751362    0.008465543389320   -0.206720411777496
88   12.129589583100000    6.971672392300000   18.561644792599999   -0.017800189554691   -0.065388500690460   -0.000008373381206
120    9.869998783600000    7.231328999700000   18.561644792599999    0.022861532866955   -0.070357553660870   -0.000026213005185
4    2.809515539400000   12.485355956499999   20.212877979400002    0.122629471123219    0.008454605937004   -0.206711947917938
76    2.809254619699999    9.367123031200000   18.561644792599999   -0.017804231494665    0.065401628613472   -0.000004440080374
100    3.714923951199999   10.472344887900000   20.357352191600000    0.093530103564262    0.022996410727501   -0.124821804463863
164    0.608145655000000   12.401968705000000   20.357352191600000    0.093513749539852   -0.022995471954346   -0.124817863106728
180    0.549663671100000    9.107466423800000   18.561644792599999    0.022864375263453    0.070358678698540   -0.000021279323846
12    5.916293922700000   10.388957636400002   20.212877979400002    0.122629418969154   -0.008464202284813   -0.206713289022446
168    6.821702707300000   12.401968705000000   20.357352191600000    0.093496724963188   -0.022975385189056   -0.124791316688061
184    6.763220400299998    9.107466423800000   18.561644792599999    0.022862184792757    0.070363499224186   -0.000006260117516
8    9.023071933099999   12.485355956499999   20.212877979400002    0.122634395956993    0.008451536297798   -0.206718936562538
16   12.129850316399997   10.388957636400002   20.212877979400002    0.122639164328575   -0.008453518152237   -0.206706792116165
80    9.022811199800000    9.367123031200000   18.561644792599999   -0.017796473577619    0.065394558012486   -0.000004028435796
104    9.928480344900001   10.472344887900000   20.357352191600000    0.093513242900372    0.022983312606812   -0.124802201986313
