ITEM: TIMESTEP
0
ITEM: NUMBER OF ATOMS
192
ITEM: BOX BOUNDS xy xz yz pp pp pp
0.0000000000000000e+00 1.2427113533000000e+01 0.0000000000000000e+00
0.0000000000000000e+00 1.3071036338800001e+01 0.0000000000000000e+00
0.0000000000000000e+00 2.1213308334400001e+01 0.0000000000000000e+00
ITEM: ATOMS id xu yu zu fx fy fz
17    0.297262781700000    2.682078702400000    1.000430206500000   -0.122650042176247    0.008550137281418    0.206721827387810
41    3.404041227099999    0.585680473800000    1.000430206500000   -0.122660018503666   -0.008479863405228    0.206642717123032
89    3.404301960299999    3.703913307600000    2.651663541800000    0.017858956009150   -0.065347075462341    0.000008192379028
137    2.498632815300000    2.598692026100000    0.855957012500000   -0.093518190085888   -0.022948592901230    0.124745279550552
21    6.510819237499998    2.682078702400000    1.000430206500000   -0.122717097401619    0.008530750870705    0.206661522388458
169    5.605411198500000    0.669067150100000    0.855957012500000   -0.093468293547630    0.022904373705387    0.124738723039627
185    5.663893132700000    3.963569536000000    2.651663541800000   -0.022900562733412   -0.070315793156624    0.000021955464035
45    9.617598366399999    0.585680473800000    1.000430206500000   -0.122686095535755   -0.008508086204529    0.206702023744583
93    9.617859099700000    3.703913307600000    2.651663541800000    0.017838116735220   -0.065406113862991    0.000005581416190
141    8.712189954599999    2.598692026100000    0.855957012500000   -0.093407131731510   -0.022932879626751    0.124716944992542
173   11.818968337799999    0.669067150100000    0.855957012500000   -0.093503534793854    0.022937059402466    0.124736741185188
189   11.877449899200000    3.963569536000000    2.651663541800000   -0.022869303822517   -0.070393800735474   -0.000004358225851
43    3.404041227099999    7.121198551700000    1.000430206500000   -0.122662231326103   -0.008502975106239    0.206664800643921
65    0.297523738700000    6.099363946500000    2.651663541800000    0.017859552055597    0.065369643270969    0.000018144026399
121    2.557114749400000    5.839707718100000    2.651663541800000   -0.022937644273043    0.070231616497040   -0.000165484147146
69    6.511080716399999    6.099363946500000    2.651663541800000    0.017810277640820    0.065378881990910    0.000008806586266
171    5.605411198500000    7.204585032000001    0.855957012500000   -0.093440636992455    0.023015655577183    0.124752439558506
47    9.617598366399999    7.121198551700000    1.000430206500000   -0.122600749135017   -0.008542850613594    0.206692665815353
125    8.770671515900000    5.839707718100000    2.651663541800000   -0.022892810404301    0.070321105420589   -0.000036682467908
175   11.818968337799999    7.204585032000001    0.855957012500000   -0.093529649078846    0.022962756454945    0.124711439013481
19    0.297262781700000    9.217596871800000    1.000430206500000   -0.122670277953148    0.008464068174362    0.206646651029587
67    0.297523738700000   12.634882115900002    2.651663541800000    0.017823077738285    0.065390422940254    0.000003269407898
91    3.404301960299999   10.239431477000000    2.651663541800000    0.017875855788589   -0.065394312143326   -0.000006387837402
123    2.557114749400000   12.375225508500000    2.651663541800000   -0.022874705493450    0.070376172661781    0.000100331249996
139    2.498632815300000    9.134210391500000    0.855957012500000   -0.093508012592793   -0.022952154278755    0.124748207628727
23    6.510819237499998    9.217596871800000    1.000430206500000   -0.122757732868195    0.008476004004478    0.206733644008636
71    6.511080716399999   12.634882115900002    2.651663541800000    0.017790140584111    0.065417885780334   -0.000007340684533
187    5.663893132700000   10.499088084400002    2.651663541800000   -0.022891281172633   -0.070406250655651   -0.000001385807991
95    9.617859099700000   10.239431477000000    2.651663541800000    0.017836052924395   -0.065380699932575    0.000017530983314
127    8.770671515900000   12.375225508500000    2.651663541800000   -0.022853657603264    0.070291504263878   -0.000047613866627
143    8.712189954599999    9.134210391500000    0.855957012500000   -0.093461878597736   -0.022918105125427    0.124736465513706
191   11.877449899200000   10.499088084400002    2.651663541800000   -0.022951306775212   -0.070273838937283   -0.000040464012272
25    0.297262781700000    2.682078702400000    4.302896728600000   -0.122648224234581    0.008576557040215   -0.206596434116364
57    3.404041227099999    0.585680473800000    4.302896728600000   -0.122576773166656   -0.008475959300995   -0.206699594855309
145    2.498632815300000    2.598692026100000    4.447369986200000   -0.093427009880543   -0.022967606782913   -0.124338760972023
153    3.714923951199999    3.936826339400000    6.159283862799999    0.092215321958065    0.021027058362961    0.127223461866379
29    6.510819237499998    2.682078702400000    4.302896728600000   -0.122761927545071    0.008567526936531   -0.206644713878632
33    5.916293922700000    3.853439467000000    6.303757438599999    0.122681453824043   -0.008462131023407    0.206597656011581
105    5.605411198500000    0.669067150100000    4.447369986200000   -0.093623176217079    0.022888690233231   -0.124814078211784
37   12.129850316399997    3.853439467000000    6.303757438599999    0.122765198349953   -0.008325859904289    0.206404358148575
61    9.617598366399999    0.585680473800000    4.302896728600000   -0.122586816549301   -0.008506149053574   -0.206675112247467
109   11.818968337799999    0.669067150100000    4.447369986200000   -0.093510568141937    0.022991865873337   -0.124777063727379
149    8.712189954599999    2.598692026100000    4.447369986200000   -0.093496747314930   -0.022891111671925   -0.124712243676186
157    9.928480344900001    3.936826339400000    6.159283862799999    0.093417592346668    0.022949866950512    0.124777399003506
49    2.809515539400000    5.949837787100000    6.303757438599999    0.123130835592747    0.009283751249313    0.207974940538406
59    3.404041227099999    7.121198551700000    4.302896728600000   -0.122614935040474   -0.008533775806427   -0.206773966550827
129    0.608145655000000    5.866450914700000    6.159283862799999    0.093135155737400   -0.022732593119144    0.124416612088680
107    5.605411198500000    7.204585032000001    4.447369986200000   -0.093435540795326    0.022925481200218   -0.124758467078209
133    6.821702707300000    5.866450914700000    6.159283862799999    0.093477867543697   -0.022731564939022    0.124765895307064
53    9.023071933099999    5.949837787100000    6.303757438599999    0.122776947915554    0.008529588580132    0.206662148237228
63    9.617598366399999    7.121198551700000    4.302896728600000   -0.122651062905788   -0.008571982383728   -0.206605523824692
111   11.818968337799999    7.204585032000001    4.447369986200000   -0.093523547053337    0.022848621010780   -0.124718613922596
27    0.297262781700000    9.217596871800000    4.302896728600000   -0.122660011053085    0.008530274033546   -0.206584483385086
51    2.809515539400000   12.485355956499999    6.303757438599999    0.122380629181862    0.008098378777504    0.206055998802185
131    0.608145655000000   12.401968705000000    6.159283862799999    0.093455038964748   -0.023060031235218    0.124779567122459
147    2.498632815300000    9.134210391500000    4.447369986200000   -0.093456923961639   -0.022736653685570   -0.124767519533634
155    3.714923951199999   10.472344887900000    6.159283862799999    0.093431778252125    0.022890381515026    0.124708831310272
31    6.510819237499998    9.217596871800000    4.302896728600000   -0.122699111700058    0.008519083261490   -0.206730604171753
35    5.916293922700000   10.388957636400002    6.303757438599999    0.122702509164810   -0.008457049727440    0.206601172685623
135    6.821702707300000   12.401968705000000    6.159283862799999    0.093520656228065   -0.023024760186672    0.124643117189407
39   12.129850316399997   10.388957636400002    6.303757438599999    0.122600138187408   -0.008450835943222    0.206578940153122
55    9.023071933099999   12.485355956499999    6.303757438599999    0.122607916593552    0.008481726050377    0.206610009074211
151    8.712189954599999    9.134210391500000    4.447369986200000   -0.093457080423832   -0.022831551730633   -0.124707169830799
159    9.928480344900001   10.472344887900000    6.159283862799999    0.093482568860054    0.022832646965981    0.124729491770267
73    2.809254619699999    2.831604665700000    7.954990625400001   -0.013616587035358    0.070330351591110    0.007688915356994
97    3.714923951199999    3.946826339400000    9.750697388000001    0.115765854716301   -0.006485067307949   -0.142907336354256
113    3.656442017100000    0.695810490500000    7.954990625400001    0.022039696574211   -0.065197885036469    0.002264586044475
177    0.549663671100000    2.571948633400000    7.954990625400001    0.026189407333732    0.070726670324802    0.000541024142876
9    5.916293922700000    3.853439467000000    9.606223812200000    0.113584727048874   -0.008113548159599   -0.207174271345139
81    5.916033189399998    0.436154327500000    7.954990625400001   -0.017303431406617   -0.065797403454781   -0.000293172895908
181    6.763220400299998    2.571948633400000    7.954990625400001    0.021870337426662    0.071203485131264    0.001284499419853
13   12.129850316399997    3.853439467000000    9.606223812200000    0.122893512248993   -0.007075205445290   -0.206979364156723
77    9.022811199800000    2.831604665700000    7.954990625400001   -0.017796006053686    0.065308921039104   -0.000175149645656
85   12.129589583100000    0.436154327500000    7.954990625400001   -0.017891861498356   -0.065356045961380   -0.000061567559897
101    9.928480344900001    3.936826339400000    9.750697388000001    0.094102397561073    0.023519612848759   -0.125694334506989
117    9.869998783600000    0.695810490500000    7.954990625400001    0.022940386086702   -0.070178061723709    0.000031874282286
1    2.809515539400000    5.949837787100000    9.606223812200000    0.105659559369087    0.040588483214378   -0.204092890024185
115    3.656442017100000    7.231328999700000    7.954990625400001    0.021422777324915   -0.071113556623459   -0.000270545482635
161    0.608145655000000    5.866450914700000    9.750697388000001    0.097285732626915   -0.023175664246082   -0.125626191496849
83    5.916033189399998    6.971672392300000    7.954990625400001   -0.017317939549685   -0.064986258745193   -0.000348514411598
165    6.821702707300000    5.866450914700000    9.750697388000001    0.093546181917191   -0.023138955235481   -0.124870374798775
5    9.023071933099999    5.949837787100000    9.606223812200000    0.122448176145554    0.008591070771217   -0.206713944673538
87   12.129589583100000    6.971672392300000    7.954990625400001   -0.018085105344653   -0.065434537827969    0.000006274029147
119    9.869998783600000    7.231328999700000    7.954990625400001    0.022918112576008   -0.070252709090710   -0.000107895582914
3    2.809515539400000   12.485355956499999    9.606223812200000    0.121985368430614    0.007597953081131   -0.207430034875870
75    2.809254619699999    9.367123031200000    7.954990625400001   -0.017836637794971    0.065478116273880   -0.000087658874691
99    3.714923951199999   10.472344887900000    9.750697388000001    0.093490883708000    0.024433791637421   -0.125243023037910
163    0.608145655000000   12.401968705000000    9.750697388000001    0.093586154282093   -0.023165710270405   -0.125017449259758
179    0.549663671100000    9.107466423800000    7.954990625400001    0.022902585566044    0.070385910570621   -0.000126456841826
11    5.916293922700000   10.388957636400002    9.606223812200000    0.122654199600220   -0.008384123444557   -0.206749230623245
167    6.821702707300000   12.401968705000000    9.750697388000001    0.093638382852077   -0.023231185972691   -0.124773561954498
183    6.763220400299998    9.107466423800000    7.954990625400001    0.022964902222157    0.070263125002384   -0.000027972040698
7    9.023071933099999   12.485355956499999    9.606223812200000    0.122753411531448    0.008553907275200   -0.206560894846916
15   12.129850316399997   10.388957636400002    9.606223812200000    0.122601762413979   -0.008537411689758   -0.206607714295387
79    9.022811199800000    9.367123031200000    7.954990625400001   -0.017770564183593    0.065374955534935    0.000017982441932
103    9.928480344900001   10.472344887900000    9.750697388000001    0.093446798622608    0.022811561822891   -0.124732911586761
18    0.297262781700000    2.682078702400000   11.607084522199999   -0.117184489965439    0.008379861712456    0.206477582454681
42    3.404041227099999    0.585680473800000   11.607084522199999   -0.124577358365059   -0.002436652779579    0.206115365028381
90    3.404301960299999    3.703913307600000   13.258317709000000    0.016419444233179   -0.066736333072186   -0.002941307378933
138    2.498632815300000    2.598692026100000   11.462611582800001   -0.102636255323887   -0.034097246825695    0.135846674442291
22    6.510819237499998    2.682078702400000   11.607084522199999   -0.119379281997681    0.007694154977798    0.208607092499733
170    5.605411198500000    0.669067150100000   11.462611582800001   -0.093017794191837    0.022484637796879    0.124825738370419
186    5.663893132700000    3.963569536000000   13.258317709000000   -0.022774295881391   -0.069913476705551    0.000244495924562
46    9.617598366399999    0.585680473800000   11.607084522199999   -0.122492849826813   -0.008899599313736    0.206717297434807
94    9.617859099700000    3.703913307600000   13.258317709000000    0.017923235893250   -0.065245918929577    0.000258456449956
142    8.712189954599999    2.598692026100000   11.462611582800001   -0.093589574098587   -0.023604534566402    0.125526621937752
174   11.818968337799999    0.669067150100000   11.462611582800001   -0.093686006963253    0.022951088845730    0.124802157282829
190   11.877449899200000    3.963569536000000   13.258317709000000   -0.023076478391886   -0.070418529212475    0.000094703398645
44    3.404041227099999    7.121198551700000   11.607084522199999   -0.123048111796379   -0.011951878666878    0.206172570586205
66    0.297523738700000    6.099363946500000   13.258317709000000    0.018101299181581    0.065517246723175   -0.000214053317904
122    2.557114749400000    5.839707718100000   13.258317709000000   -0.022274930030107    0.071175090968609   -0.003626063233241
70    6.511080716399999    6.099363946500000   13.258317709000000    0.017819708213210    0.065505884587765    0.000109461136162
172    5.605411198500000    7.204585032000001   11.462611582800001   -0.093955762684345    0.022475376725197    0.124057956039906
48    9.617598366399999    7.121198551700000   11.607084522199999   -0.122465573251247   -0.008407577872276    0.206827789545059
126    8.770671515900000    5.839707718100000   13.258317709000000   -0.022910336032510    0.070377334952354    0.000076892785728
176   11.818968337799999    7.204585032000001   11.462611582800001   -0.094052180647850    0.023086518049240    0.125247001647949
20    0.297262781700000    9.217596871800000   11.607084522199999   -0.122267797589302    0.007988020777702    0.206606402993202
68    0.297523738700000   12.634882115900002   13.258317709000000    0.017613543197513    0.065111130475998    0.000187430996448
92    3.404301960299999   10.239431477000000   13.258317709000000    0.017719447612762   -0.065682098269463   -0.000190793842194
124    2.557114749400000   12.375225508500000   13.258317709000000   -0.022835135459900    0.069921977818012    0.000595618796069
140    2.498632815300000    9.134210391500000   11.462611582800001   -0.093461036682129   -0.024390995502472    0.124403044581413
24    6.510819237499998    9.217596871800000   11.607084522199999   -0.123099692165852    0.008023634552956    0.206676363945007
72    6.511080716399999   12.634882115900002   13.258317709000000    0.017925128340721    0.065315663814545    0.000126949511468
188    5.663893132700000   10.499088084400002   13.258317709000000   -0.022938471287489   -0.070281088352203    0.000111430883408
96    9.617859099700000   10.239431477000000   13.258317709000000    0.017821596935391   -0.065378613770008    0.000008451519534
128    8.770671515900000   12.375225508500000   13.258317709000000   -0.022879898548126    0.070333503186703    0.000029264017940
144    8.712189954599999    9.134210391500000   11.462611582800001   -0.093353308737278   -0.022895604372025    0.124759867787361
192   11.877449899200000   10.499088084400002   13.258317709000000   -0.022954955697060   -0.070331059396267    0.000128670828417
26    0.297262781700000    2.682078702400000   14.909550895800001   -0.122682198882103    0.008552625775337   -0.206748202443123
58    3.404041227099999    0.585680473800000   14.909550895800001   -0.122747212648392   -0.008492767810822   -0.206754341721535
146    2.498632815300000    2.598692026100000   15.054023835200001   -0.093520618975163   -0.023062057793140   -0.124303273856640
154    3.714923951199999    3.936826339400000   16.765937393600002    0.093449071049690    0.022975131869316    0.124734677374363
30    6.510819237499998    2.682078702400000   14.909550895800001   -0.122527107596397    0.008384957909584   -0.206702768802643
34    5.916293922700000    3.853439467000000   16.910411605800000    0.122661881148815   -0.008473381400108    0.206728294491768
106    5.605411198500000    0.669067150100000   15.054023835200001   -0.093515045940876    0.022967368364334   -0.124670505523682
38   12.129850316399997    3.853439467000000   16.910411605800000    0.122673906385899   -0.008515775203705    0.206623554229736
62    9.617598366399999    0.585680473800000   14.909550895800001   -0.122686222195625   -0.008447721600533   -0.206733405590057
110   11.818968337799999    0.669067150100000   15.054023835200001   -0.093570530414581    0.022971875965595   -0.124676652252674
150    8.712189954599999    2.598692026100000   15.054023835200001   -0.093481488525867   -0.022992424666882   -0.124652914702892
158    9.928480344900001    3.936826339400000   16.765937393600002    0.093463778495789    0.022972308099270    0.124743521213531
50    2.809515539400000    5.949837787100000   16.910411605800000    0.122620597481728    0.008433997631073    0.206720054149628
60    3.404041227099999    7.121198551700000   14.909550895800001   -0.122762560844421   -0.008594945073128   -0.206821367144585
130    0.608145655000000    5.866450914700000   16.765937393600002    0.093550674617290   -0.022908359766006    0.124765150249004
108    5.605411198500000    7.204585032000001   15.054023835200001   -0.093306608498096    0.022906102240086   -0.124771632254124
134    6.821702707300000    5.866450914700000   16.765937393600002    0.093465805053711   -0.022896148264408    0.124678626656532
54    9.023071933099999    5.949837787100000   16.910411605800000    0.122642055153847    0.008448451757431    0.206751435995102
64    9.617598366399999    7.121198551700000   14.909550895800001   -0.122627973556519   -0.008456602692604   -0.206735432147980
112   11.818968337799999    7.204585032000001   15.054023835200001   -0.093552142381668    0.023035839200020   -0.124733835458755
28    0.297262781700000    9.217596871800000   14.909550895800001   -0.122629217803478    0.008467689156532   -0.206692963838577
52    2.809515539400000   12.485355956499999   16.910411605800000    0.122672155499458    0.008515909314156    0.206583857536316
132    0.608145655000000   12.401968705000000   16.765937393600002    0.093503072857857   -0.023032881319523    0.124819256365299
148    2.498632815300000    9.134210391500000   15.054023835200001   -0.093511059880257   -0.022825039923191   -0.124691441655159
156    3.714923951199999   10.472344887900000   16.765937393600002    0.093482531607151    0.022844187915325    0.124701201915741
32    6.510819237499998    9.217596871800000   14.909550895800001   -0.122619077563286    0.008411750197411   -0.206683516502380
36    5.916293922700000   10.388957636400002   16.910411605800000    0.122629486024380   -0.008438974618912    0.206738144159317
136    6.821702707300000   12.401968705000000   16.765937393600002    0.093564130365849   -0.023037217557430    0.124828040599823
40   12.129850316399997   10.388957636400002   16.910411605800000    0.122635833919048   -0.008444592356682    0.206731528043747
56    9.023071933099999   12.485355956499999   16.910411605800000    0.122629612684250    0.008451968431473    0.206736400723457
152    8.712189954599999    9.134210391500000   15.054023835200001   -0.093503400683403   -0.022954620420933   -0.124726533889771
160    9.928480344900001   10.472344887900000   16.765937393600002    0.093506641685963    0.022962167859077    0.124744087457657
74    2.809254619699999    2.831604665700000   18.561644792599999   -0.017801539972425    0.065394036471844    0.000002624932677
98    3.714923951199999    3.936826339400000   20.357352191600000    0.093521796166897    0.022973924875259   -0.124790117144585
114    3.656442017100000    0.695810490500000   18.561644792599999    0.022880915552378   -0.070347189903259    0.000021722167730
178    0.549663671100000    2.571948633400000   18.561644792599999    0.022867381572723    0.070346571505070    0.000009879702702
10    5.916293922700000    3.853439467000000   20.212877979400002    0.122629269957542   -0.008452385663986   -0.206714689731598
82    5.916033189399998    0.436154327500000   18.561644792599999   -0.017807714641094   -0.065394178032875    0.000006527639925
182    6.763220400299998    2.571948633400000   18.561644792599999    0.022877052426338    0.070353806018829    0.000002643093467
14   12.129850316399997    3.853439467000000   20.212877979400002    0.122634664177895   -0.008478522300720   -0.206725224852562
78    9.022811199800000    2.831604665700000   18.561644792599999   -0.017803966999054    0.065397806465626   -0.000012973323464
86   12.129589583100000    0.436154327500000   18.561644792599999   -0.017800364643335   -0.065405994653702    0.000004233885647
102    9.928480344900001    3.936826339400000   20.357352191600000    0.093485020101070    0.022956401109695   -0.124765083193779
118    9.869998783600000    0.695810490500000   18.561644792599999    0.022862337529659   -0.070358924567699   -0.000014032237232
2    2.809515539400000    5.949837787100000   20.212877979400002    0.122638657689095    0.008465141057968   -0.206718593835831
116    3.656442017100000    7.231328999700000   18.561644792599999    0.022861320525408   -0.070362724363804   -0.000052008250350
162    0.608145655000000    5.866450914700000   20.357352191600000    0.093497693538666   -0.022944316267967   -0.124769292771816
84    5.916033189399998    6.971672392300000   18.561644792599999   -0.017800152301788   -0.065402090549469   -0.000012969365343
166    6.821702707300000    5.866450914700000   20.357352191600000    0.093505285680294   -0.022995091974735   -0.124796085059643
6    9.023071933099999    5.949837787100000   20.212877979400002    0.122629284858704    0.008456528186798   -0.206722021102905
88   12.129589583100000    6.971672392300000   18.561644792599999   -0.017811715602875   -0.065392777323723   -0.000000978959292
120    9.869998783600000    7.231328999700000   18.561644792599999    0.022863620892167   -0.070359855890274   -0.000033471733332
4    2.809515539400000   12.485355956499999   20.212877979400002    0.122633226215839    0.008456498384476   -0.206716224551201
76    2.809254619699999    9.367123031200000   18.561644792599999   -0.017798362299800    0.065405622124672   -0.000000316649675
100    3.714923951199999   10.472344887900000   20.357352191600000    0.093527510762215    0.022985950112343   -0.124820917844772
164    0.608145655000000   12.401968705000000   20.357352191600000    0.093514285981655   -0.022998340427876   -0.124810233712196
180    0.549663671100000    9.107466423800000   18.561644792599999    0.022867973893881    0.070348210632801   -0.000024877255782
12    5.916293922700000   10.388957636400002   20.212877979400002    0.122628226876259   -0.008458852767944   -0.206719502806664
168    6.821702707300000   12.401968705000000   20.357352191600000    0.093497484922409   -0.022979110479355   -0.124791033565998
184    6.763220400299998    9.107466423800000   18.561644792599999    0.022852316498756    0.070372402667999   -0.000012893928215
8    9.023071933099999   12.485355956499999   20.212877979400002    0.122642576694489    0.008454039692879   -0.206723213195801
16   12.129850316399997   10.388957636400002   20.212877979400002    0.122637346386909   -0.008457973599434   -0.206708878278732
80    9.022811199800000    9.367123031200000   18.561644792599999   -0.017792250961065    0.065398052334785   -0.000001789070666
104    9.928480344900001   10.472344887900000   20.357352191600000    0.093515820801258    0.022983416914940   -0.124802604317665
