ITEM: TIMESTEP
0
ITEM: NUMBER OF ATOMS
192
ITEM: BOX BOUNDS xy xz yz pp pp pp
0.0000000000000000e+00 1.2427113533000000e+01 0.0000000000000000e+00
0.0000000000000000e+00 1.3071036338800001e+01 0.0000000000000000e+00
0.0000000000000000e+00 2.1213308334400001e+01 0.0000000000000000e+00
ITEM: ATOMS id xu yu zu fx fy fz
17    0.297262781700000    2.682078702400000    1.000430206500000   -0.122650280594826    0.008531570434570    0.206739455461502
41    3.404041227099999    0.585680473800000    1.000430206500000   -0.122651904821396   -0.008494302630424    0.206684991717339
89    3.404301960299999    3.703913307600000    2.651663541800000    0.017862733453512   -0.065298430621624   -0.000044128624722
137    2.498632815300000    2.598692026100000    0.855957012500000   -0.093504548072815   -0.022982753813267    0.124766744673252
21    6.510819237499998    2.682078702400000    1.000430206500000   -0.122718378901482    0.008522018790245    0.206679403781891
169    5.605411198500000    0.669067150100000    0.855957012500000   -0.093522906303406    0.022919490933418    0.124684162437916
185    5.663893132700000    3.963569536000000    2.651663541800000   -0.022947009652853   -0.070228017866611   -0.000070846173912
45    9.617598366399999    0.585680473800000    1.000430206500000   -0.122683331370354   -0.008496150374413    0.206703782081604
93    9.617859099700000    3.703913307600000    2.651663541800000    0.017825124785304   -0.065412908792496    0.000015167752281
141    8.712189954599999    2.598692026100000    0.855957012500000   -0.093404680490494   -0.022934578359127    0.124710910022259
173   11.818968337799999    0.669067150100000    0.855957012500000   -0.093493737280369    0.022923849523067    0.124731488525867
189   11.877449899200000    3.963569536000000    2.651663541800000   -0.022844282910228   -0.070402368903160    0.000036552446545
43    3.404041227099999    7.121198551700000    1.000430206500000   -0.122667849063873   -0.008513152599335    0.206679850816727
65    0.297523738700000    6.099363946500000    2.651663541800000    0.017860539257526    0.065380826592445   -0.000014193356037
121    2.557114749400000    5.839707718100000    2.651663541800000   -0.022904403507710    0.070287339389324    0.000008021248505
69    6.511080716399999    6.099363946500000    2.651663541800000    0.017814218997955    0.065380722284317    0.000013954006135
171    5.605411198500000    7.204585032000001    0.855957012500000   -0.093432880938053    0.023016355931759    0.124747566878796
47    9.617598366399999    7.121198551700000    1.000430206500000   -0.122600533068180   -0.008541658520699    0.206693619489670
125    8.770671515900000    5.839707718100000    2.651663541800000   -0.022896386682987    0.070328548550606   -0.000032740645111
175   11.818968337799999    7.204585032000001    0.855957012500000   -0.093532696366310    0.022954367101192    0.124714098870754
19    0.297262781700000    9.217596871800000    1.000430206500000   -0.122667759656906    0.008466735482216    0.206646800041199
67    0.297523738700000   12.634882115900002    2.651663541800000    0.017811413854361    0.065326042473316   -0.000115625094622
91    3.404301960299999   10.239431477000000    2.651663541800000    0.017915129661560   -0.065407186746597   -0.000027168438464
123    2.557114749400000   12.375225508500000    2.651663541800000   -0.022934470325708    0.070464268326759   -0.001022675307468
139    2.498632815300000    9.134210391500000    0.855957012500000   -0.093495711684227   -0.022931903600693    0.124740518629551
23    6.510819237499998    9.217596871800000    1.000430206500000   -0.122751817107201    0.008472621440887    0.206718012690544
71    6.511080716399999   12.634882115900002    2.651663541800000    0.017740327864885    0.065526954829693    0.000251452438533
187    5.663893132700000   10.499088084400002    2.651663541800000   -0.022950056940317   -0.070484727621078    0.000030284747481
95    9.617859099700000   10.239431477000000    2.651663541800000    0.017811987549067   -0.065372779965401    0.000035053584725
127    8.770671515900000   12.375225508500000    2.651663541800000   -0.022753585129976    0.070310600101948   -0.000041441526264
143    8.712189954599999    9.134210391500000    0.855957012500000   -0.093461781740189   -0.022917583584785    0.124738492071629
191   11.877449899200000   10.499088084400002    2.651663541800000   -0.022921536117792   -0.070273436605930    0.000030718601920
25    0.297262781700000    2.682078702400000    4.302896728600000   -0.122808933258057    0.008726924657822   -0.206837385892868
57    3.404041227099999    0.585680473800000    4.302896728600000   -0.122359335422516   -0.008418634533882   -0.207354605197906
145    2.498632815300000    2.598692026100000    4.447369986200000   -0.093440718948841   -0.022271789610386   -0.124805100262165
153    3.714923951199999    3.936826339400000    6.159283862799999    0.092576444149017    0.021998547017574    0.126054853200912
29    6.510819237499998    2.682078702400000    4.302896728600000   -0.122846655547619    0.008301660418510   -0.206376999616623
33    5.916293922700000    3.853439467000000    6.303757438599999    0.123079888522625   -0.009780496358871    0.207670927047729
105    5.605411198500000    0.669067150100000    4.447369986200000   -0.092742539942265    0.022780254483223   -0.125854119658470
37   12.129850316399997    3.853439467000000    6.303757438599999    0.122372634708881   -0.008052200078964    0.206003695726395
61    9.617598366399999    0.585680473800000    4.302896728600000   -0.122524827718735   -0.008392244577408   -0.206842750310898
109   11.818968337799999    0.669067150100000    4.447369986200000   -0.093458861112595    0.023160219192505   -0.124849610030651
149    8.712189954599999    2.598692026100000    4.447369986200000   -0.093400470912457   -0.022952944040298   -0.124555654823780
157    9.928480344900001    3.936826339400000    6.159283862799999    0.093481570482254    0.022885337471962    0.124786451458931
49    2.809515539400000    5.949837787100000    6.303757438599999    0.122762501239777    0.008292734622955    0.206674620509148
59    3.404041227099999    7.121198551700000    4.302896728600000   -0.122641235589981   -0.008525535464287   -0.206596255302429
129    0.608145655000000    5.866450914700000    6.159283862799999    0.093484096229076   -0.023015096783638    0.124816186726093
107    5.605411198500000    7.204585032000001    4.447369986200000   -0.093482710421085    0.023028939962387   -0.124730348587036
133    6.821702707300000    5.866450914700000    6.159283862799999    0.093482233583927   -0.022908173501492    0.124743513762951
53    9.023071933099999    5.949837787100000    6.303757438599999    0.122677482664585    0.008508667349815    0.206660121679306
63    9.617598366399999    7.121198551700000    4.302896728600000   -0.122665062546730   -0.008571341633797   -0.206631243228912
111   11.818968337799999    7.204585032000001    4.447369986200000   -0.093563742935658    0.022953666746616   -0.124770104885101
27    0.297262781700000    9.217596871800000    4.302896728600000   -0.122663624584675    0.008448839187622   -0.206732541322708
51    2.809515539400000   12.485355956499999    6.303757438599999    0.129252567887306    0.017949372529984    0.221051722764969
131    0.608145655000000   12.401968705000000    6.159283862799999    0.093508653342724   -0.021983020007610    0.125132218003273
147    2.498632815300000    9.134210391500000    4.447369986200000   -0.093294925987720   -0.022853806614876   -0.124437049031258
155    3.714923951199999   10.472344887900000    6.159283862799999    0.093307621777058    0.021642349660397    0.124169811606407
31    6.510819237499998    9.217596871800000    4.302896728600000   -0.122709318995476    0.008604690432549   -0.206681981682777
35    5.916293922700000   10.388957636400002    6.303757438599999    0.123313084244728   -0.008340045809746    0.206179350614548
135    6.821702707300000   12.401968705000000    6.159283862799999    0.097004838287830   -0.026389040052891    0.118509948253632
39   12.129850316399997   10.388957636400002    6.303757438599999    0.122280918061733   -0.009363546967506    0.206656873226166
55    9.023071933099999   12.485355956499999    6.303757438599999    0.121762178838253    0.008440658450127    0.206554174423218
151    8.712189954599999    9.134210391500000    4.447369986200000   -0.093475699424744   -0.022869534790516   -0.124722041189671
159    9.928480344900001   10.472344887900000    6.159283862799999    0.093438141047955    0.022851526737213    0.124710880219936
73    2.809254619699999    2.831604665700000    7.954990625400001   -0.014505451545119    0.059308879077435   -0.000007930211723
97    3.714923951199999    3.936826339400000    9.750697388000001    0.092566214501858    0.022041171789169   -0.126055791974068
113    3.666442017100000    0.695810490500000    7.954990625400001   -0.036283813416958   -0.077643997967243    0.000032721320167
177    0.549663671100000    2.571948633400000    7.954990625400001    0.028653562068939    0.067532628774643   -0.000005896901712
9    5.916293922700000    3.853439467000000    9.606223812200000    0.123092964291573   -0.009759813547134   -0.207654967904091
81    5.916033189399998    0.436154327500000    7.954990625400001    0.006047496572137   -0.067085824906826   -0.000018054619431
181    6.763220400299998    2.571948633400000    7.954990625400001    0.028868697583675    0.079653479158878   -0.000013714423403
13   12.129850316399997    3.853439467000000    9.606223812200000    0.122338488698006   -0.008009329438210   -0.205953851342201
77    9.022811199800000    2.831604665700000    7.954990625400001   -0.018468951806426    0.065304517745972   -0.000011078547686
85   12.129589583100000    0.436154327500000    7.954990625400001   -0.016819030046463   -0.065369457006454   -0.000008504644939
101    9.928480344900001    3.936826339400000    9.750697388000001    0.093561068177223    0.022941820323467   -0.124808102846146
117    9.869998783600000    0.695810490500000    7.954990625400001    0.023047341033816   -0.070126160979271    0.000024951063097
1    2.809515539400000    5.949837787100000    9.606223812200000    0.122780583798885    0.008257016539574   -0.206716045737267
115    3.656442017100000    7.231328999700000    7.954990625400001    0.022879395633936   -0.070203162729740    0.000007369089872
161    0.608145655000000    5.866450914700000    9.750697388000001    0.093437954783440   -0.023046314716339   -0.124779507517815
83    5.916033189399998    6.971672392300000    7.954990625400001   -0.017798796296120   -0.065459966659546    0.000002120621502
165    6.821702707300000    5.866450914700000    9.750697388000001    0.093553677201271   -0.022889263927937   -0.124736614525318
5    9.023071933099999    5.949837787100000    9.606223812200000    0.122606128454208    0.008467212319374   -0.206698164343834
87   12.129589583100000    6.971672392300000    7.954990625400001   -0.017859388142824   -0.065382361412048   -0.000003835938969
119    9.869998783600000    7.231328999700000    7.954990625400001    0.022884909063578   -0.070349797606468    0.000013581942767
3    2.809515539400000   12.485355956499999    9.606223812200000    0.129246756434441    0.017932936549187   -0.221068054437637
75    2.809254619699999    9.367123031200000    7.954990625400001   -0.017754044383764    0.065634474158287    0.000009866431355
99    3.714923951199999   10.472344887900000    9.750697388000001    0.093317106366158    0.021664239466190   -0.124148346483707
163    0.608145655000000   12.401968705000000    9.750697388000001    0.093541838228703   -0.021919757127762   -0.125101804733276
179    0.549663671100000    9.107466423800000    7.954990625400001    0.023072831332684    0.070477016270161    0.000000156462193
11    5.916293922700000   10.388957636400002    9.606223812200000    0.123291850090027   -0.008333295583725   -0.206195443868637
167    6.821702707300000   12.401968705000000    9.750697388000001    0.096985526382923   -0.026442691683769   -0.118490725755692
183    6.763220400299998    9.107466423800000    7.954990625400001    0.023005679249763    0.070315733551979    0.000015412690118
7    9.023071933099999   12.485355956499999    9.606223812200000    0.121806129813194    0.008515357971191   -0.206555604934692
15   12.129850316399997   10.388957636400002    9.606223812200000    0.122315146028996   -0.009432390332222   -0.206646069884300
79    9.022811199800000    9.367123031200000    7.954990625400001   -0.017817715182900    0.065369270741940   -0.000007363501936
103    9.928480344900001   10.472344887900000    9.750697388000001    0.093414030969143    0.022829577326775   -0.124704860150814
18    0.297262781700000    2.682078702400000   11.607084522199999   -0.122797846794128    0.008747100830078    0.206791177392006
42    3.404041227099999    0.585680473800000   11.607084522199999   -0.122472561895847   -0.008408203721046    0.207355946302414
90    3.404301960299999    3.703913307600000   13.258317709000000    0.017833063378930   -0.065311290323734    0.000041852421418
138    2.498632815300000    2.598692026100000   11.462611582800001   -0.093432225286961   -0.022267252206802    0.124853596091270
22    6.510819237499998    2.682078702400000   11.607084522199999   -0.122829049825668    0.008234545588493    0.206354394555092
170    5.605411198500000    0.669067150100000   11.462611582800001   -0.092615775763988    0.022795021533966    0.125883430242538
186    5.663893132700000    3.963569536000000   13.258317709000000   -0.022970352321863   -0.070212319493294    0.000128349289298
46    9.617598366399999    0.585680473800000   11.607084522199999   -0.122647322714329   -0.008419871330261    0.206872373819351
94    9.617859099700000    3.703913307600000   13.258317709000000    0.017779443413019   -0.065385542809963    0.000002700602636
142    8.712189954599999    2.598692026100000   11.462611582800001   -0.093398906290531   -0.023013256490231    0.124586470425129
174   11.818968337799999    0.669067150100000   11.462611582800001   -0.093384943902493    0.023099280893803    0.124867215752602
190   11.877449899200000    3.963569536000000   13.258317709000000   -0.022838983684778   -0.070341713726521   -0.000037224963307
44    3.404041227099999    7.121198551700000   11.607084522199999   -0.122683182358742   -0.008469954133034    0.206669121980667
66    0.297523738700000    6.099363946500000   13.258317709000000    0.017845105379820    0.065401524305344    0.000015303492546
122    2.557114749400000    5.839707718100000   13.258317709000000   -0.022895041853189    0.070338271558285    0.000007757716048
70    6.511080716399999    6.099363946500000   13.258317709000000    0.017809681594372    0.065424494445324   -0.000011793337762
172    5.605411198500000    7.204585032000001   11.462611582800001   -0.093429215252399    0.023038275539875    0.124759025871754
48    9.617598366399999    7.121198551700000   11.607084522199999   -0.122664093971252   -0.008474349975586    0.206718981266022
126    8.770671515900000    5.839707718100000   13.258317709000000   -0.022866355255246    0.070367820560932    0.000023277942091
176   11.818968337799999    7.204585032000001   11.462611582800001   -0.093512535095215    0.023072212934494    0.124799773097038
20    0.297262781700000    9.217596871800000   11.607084522199999   -0.122644297778606    0.008358761668205    0.206821054220200
68    0.297523738700000   12.634882115900002   13.258317709000000    0.017787871882319    0.065323770046234    0.000131038017571
92    3.404301960299999   10.239431477000000   13.258317709000000    0.017864590510726   -0.065411373972893    0.000037141482608
124    2.557114749400000   12.375225508500000   13.258317709000000   -0.022916059941053    0.070462219417095    0.001110629527830
140    2.498632815300000    9.134210391500000   11.462611582800001   -0.093383423984051   -0.022857680916786    0.124465972185135
24    6.510819237499998    9.217596871800000   11.607084522199999   -0.122632391750813    0.008562564849854    0.206697300076485
72    6.511080716399999   12.634882115900002   13.258317709000000    0.017768915742636    0.065502285957336   -0.000245405361056
188    5.663893132700000   10.499088084400002   13.258317709000000   -0.022930493578315   -0.070449285209179   -0.000030627474189
96    9.617859099700000   10.239431477000000   13.258317709000000    0.017787275835872   -0.065388038754463   -0.000012567965314
128    8.770671515900000   12.375225508500000   13.258317709000000   -0.022761955857277    0.070372924208641    0.000007724367606
144    8.712189954599999    9.134210391500000   11.462611582800001   -0.093521937727928   -0.022970475256443    0.124770924448967
192   11.877449899200000   10.499088084400002   13.258317709000000   -0.022831838577986   -0.070372506976128   -0.000070820795372
26    0.297262781700000    2.682078702400000   14.909550895800001   -0.122618049383163    0.008399561047554   -0.206701725721359
58    3.404041227099999    0.585680473800000   14.909550895800001   -0.122625790536404   -0.008464410901070   -0.206757813692093
146    2.498632815300000    2.598692026100000   15.054023835200001   -0.093527942895889   -0.023027986288071   -0.124776884913445
154    3.714923951199999    3.936826339400000   16.765937393600002    0.093506760895252    0.022989735007286    0.124772280454636
30    6.510819237499998    2.682078702400000   14.909550895800001   -0.122608020901680    0.008402973413467   -0.206699818372726
34    5.916293922700000    3.853439467000000   16.910411605800000    0.122641287744045   -0.008452698588371    0.206718310713768
106    5.605411198500000    0.669067150100000   15.054023835200001   -0.093556247651577    0.023006528615952   -0.124694138765335
38   12.129850316399997    3.853439467000000   16.910411605800000    0.122650325298309   -0.008465126156807    0.206736505031586
62    9.617598366399999    0.585680473800000   14.909550895800001   -0.122638046741486   -0.008436620235443   -0.206719294190407
110   11.818968337799999    0.669067150100000   15.054023835200001   -0.093491256237030    0.022975444793701   -0.124739795923233
150    8.712189954599999    2.598692026100000   15.054023835200001   -0.093539386987686   -0.023000195622444   -0.124736726284027
158    9.928480344900001    3.936826339400000   16.765937393600002    0.093501061201096    0.022983074188232    0.124755360186100
50    2.809515539400000    5.949837787100000   16.910411605800000    0.122639261186123    0.008451700210571    0.206735581159592
60    3.404041227099999    7.121198551700000   14.909550895800001   -0.122631952166557   -0.008443295955658   -0.206728368997574
130    0.608145655000000    5.866450914700000   16.765937393600002    0.093519106507301   -0.022970698773861    0.124763719737530
108    5.605411198500000    7.204585032000001   15.054023835200001   -0.093500576913357    0.022975116968155   -0.124739885330200
134    6.821702707300000    5.866450914700000   16.765937393600002    0.093508258461952   -0.022960349917412    0.124750189483166
54    9.023071933099999    5.949837787100000   16.910411605800000    0.122641384601593    0.008452177047729    0.206741034984589
64    9.617598366399999    7.121198551700000   14.909550895800001   -0.122635930776596   -0.008445858955383   -0.206727862358093
112   11.818968337799999    7.204585032000001   15.054023835200001   -0.093534834682941    0.022993125021458   -0.124758601188660
28    0.297262781700000    9.217596871800000   14.909550895800001   -0.122630149126053    0.008442461490631   -0.206726834177971
52    2.809515539400000   12.485355956499999   16.910411605800000    0.122633688151836    0.008448421955109    0.206760808825493
132    0.608145655000000   12.401968705000000   16.765937393600002    0.093501552939415   -0.022975422441959    0.124755710363388
148    2.498632815300000    9.134210391500000   15.054023835200001   -0.093489997088909   -0.022959709167480   -0.124747596681118
156    3.714923951199999   10.472344887900000   16.765937393600002    0.093500852584839    0.022960327565670    0.124748520553112
32    6.510819237499998    9.217596871800000   14.909550895800001   -0.122635826468468    0.008440673351288   -0.206724300980568
36    5.916293922700000   10.388957636400002   16.910411605800000    0.122632801532745   -0.008446499705315    0.206725478172302
136    6.821702707300000   12.401968705000000   16.765937393600002    0.093511551618576   -0.022977590560913    0.124756030738354
40   12.129850316399997   10.388957636400002   16.910411605800000    0.122637510299683   -0.008441418409348    0.206736385822296
56    9.023071933099999   12.485355956499999   16.910411605800000    0.122633300721645    0.008451849222183    0.206732138991356
152    8.712189954599999    9.134210391500000   15.054023835200001   -0.093501143157482   -0.022972621023655   -0.124742664396763
160    9.928480344900001   10.472344887900000   16.765937393600002    0.093500331044197    0.022962242364883    0.124741658568382
74    2.809254619699999    2.831604665700000   18.561644792599999   -0.017799742519855    0.065398171544075   -0.000001828186214
98    3.714923951199999    3.936826339400000   20.357352191600000    0.093529410660267    0.022983275353909   -0.124809175729752
114    3.656442017100000    0.695810490500000   18.561644792599999    0.022866493090987   -0.070359237492085   -0.000020604114980
178    0.549663671100000    2.571948633400000   18.561644792599999    0.022864446043968    0.070356167852879   -0.000027338275686
10    5.916293922700000    3.853439467000000   20.212877979400002    0.122625507414341   -0.008450165390968   -0.206714555621147
82    5.916033189399998    0.436154327500000   18.561644792599999   -0.017809558659792   -0.065397381782532    0.000001511536539
182    6.763220400299998    2.571948633400000   18.561644792599999    0.022872675210238    0.070357330143452   -0.000008333940059
14   12.129850316399997    3.853439467000000   20.212877979400002    0.122634753584862   -0.008477568626404   -0.206720873713493
78    9.022811199800000    2.831604665700000   18.561644792599999   -0.017805472016335    0.065396793186665   -0.000007044058293
86   12.129589583100000    0.436154327500000   18.561644792599999   -0.017803091555834   -0.065405987203121    0.000005291869456
102    9.928480344900001    3.936826339400000   20.357352191600000    0.093480907380581    0.022952377796173   -0.124763883650303
118    9.869998783600000    0.695810490500000   18.561644792599999    0.022865725681186   -0.070356801152229   -0.000015776604414
2    2.809515539400000    5.949837787100000   20.212877979400002    0.122637182474136    0.008461847901344   -0.206718564033508
116    3.656442017100000    7.231328999700000   18.561644792599999    0.022866230458021   -0.070360951125622   -0.000017713000489
162    0.608145655000000    5.866450914700000   20.357352191600000    0.093497909605503   -0.022943906486034   -0.124772951006889
84    5.916033189399998    6.971672392300000   18.561644792599999   -0.017805062234402   -0.065399728715420   -0.000012278348549
166    6.821702707300000    5.866450914700000   20.357352191600000    0.093506000936031   -0.022996284067631   -0.124795168638229
6    9.023071933099999    5.949837787100000   20.212877979400002    0.122629955410957    0.008455544710159   -0.206720679998398
88   12.129589583100000    6.971672392300000   18.561644792599999   -0.017808258533478   -0.065392881631851   -0.000004651159088
120    9.869998783600000    7.231328999700000   18.561644792599999    0.022864811122417   -0.070360794663429   -0.000032988376915
4    2.809515539400000   12.485355956499999   20.212877979400002    0.122630968689919    0.008449390530586   -0.206734418869019
76    2.809254619699999    9.367123031200000   18.561644792599999   -0.017800219357014    0.065399199724197    0.000000337138772
100    3.714923951199999   10.472344887900000   20.357352191600000    0.093526363372803    0.022983714938164   -0.124822013080120
164    0.608145655000000   12.401968705000000   20.357352191600000    0.093510828912258   -0.023000366985798   -0.124822571873665
180    0.549663671100000    9.107466423800000   18.561644792599999    0.022868990898132    0.070349678397179   -0.000023219035938
12    5.916293922700000   10.388957636400002   20.212877979400002    0.122625246644020   -0.008454889059067   -0.206712394952774
168    6.821702707300000   12.401968705000000   20.357352191600000    0.093499608337879   -0.022979781031609   -0.124796144664288
184    6.763220400299998    9.107466423800000   18.561644792599999    0.022854760289192    0.070370540022850   -0.000013044802472
8    9.023071933099999   12.485355956499999   20.212877979400002    0.122640043497086    0.008454307913780   -0.206720963120461
16   12.129850316399997   10.388957636400002   20.212877979400002    0.122637480497360   -0.008453845977783   -0.206714838743210
80    9.022811199800000    9.367123031200000   18.561644792599999   -0.017791986465454    0.065398648381233   -0.000000432133675
104    9.928480344900001   10.472344887900000   20.357352191600000    0.093514792621136    0.022981710731983   -0.124799460172653
