ITEM: TIMESTEP
0
ITEM: NUMBER OF ATOMS
192
ITEM: BOX BOUNDS xy xz yz pp pp pp
0.0000000000000000e+00 1.2427113533000000e+01 0.0000000000000000e+00
0.0000000000000000e+00 1.3071036338800001e+01 0.0000000000000000e+00
0.0000000000000000e+00 2.1213308334400001e+01 0.0000000000000000e+00
ITEM: ATOMS id xu yu zu fx fy fz
17    0.297262781700000    2.682078702400000    1.000430206500000   -0.122643947601318    0.008554488420486    0.206727355718613
41    3.404041227099999    0.585680473800000    1.000430206500000   -0.122660681605339   -0.008475616574287    0.206642344594002
89    3.404301960299999    3.703913307600000    2.651663541800000    0.017876749858260   -0.065420828759670   -0.000137831550092
137    2.498632815300000    2.598692026100000    0.855957012500000   -0.093519747257233   -0.022943697869778    0.124732367694378
21    6.510819237499998    2.682078702400000    1.000430206500000   -0.122719742357731    0.008529409766197    0.206665918231010
169    5.605411198500000    0.669067150100000    0.855957012500000   -0.093464285135269    0.022908762097359    0.124742500483990
185    5.663893132700000    3.963569536000000    2.651663541800000   -0.022908918559551   -0.070303216576576    0.000001198612154
45    9.617598366399999    0.585680473800000    1.000430206500000   -0.122683420777321   -0.008509144186974    0.206700384616852
93    9.617859099700000    3.703913307600000    2.651663541800000    0.017848089337349   -0.065401241183281   -0.000021502375603
141    8.712189954599999    2.598692026100000    0.855957012500000   -0.093410611152649   -0.022932536900043    0.124725006520748
173   11.818968337799999    0.669067150100000    0.855957012500000   -0.093502715229988    0.022935815155506    0.124736979603767
189   11.877449899200000    3.963569536000000    2.651663541800000   -0.022900488227606   -0.070347219705582   -0.000026092966436
43    3.404041227099999    7.121198551700000    1.000430206500000   -0.122667849063873   -0.008515238761902    0.206650614738464
65    0.297523738700000    6.099363946500000    2.651663541800000    0.017772488296032    0.065398037433624   -0.000136356800795
121    2.557114749400000    5.839707718100000    2.651663541800000   -0.022940106689930    0.070212520658970   -0.000124523648992
69    6.511080716399999    6.099363946500000    2.651663541800000    0.017764002084732    0.065396741032600    0.000041167251766
171    5.605411198500000    7.204585032000001    0.855957012500000   -0.093427881598473    0.023019023239613    0.124725729227066
47    9.617598366399999    7.121198551700000    1.000430206500000   -0.122600138187408   -0.008540481328964    0.206687599420547
125    8.770671515900000    5.839707718100000    2.651663541800000   -0.022892124950886    0.070311546325684   -0.000024124514312
175   11.818968337799999    7.204585032000001    0.855957012500000   -0.093528784811497    0.022962510585785    0.124706149101257
19    0.297262781700000    9.217596871800000    1.000430206500000   -0.122672185301781    0.008464023470879    0.206654191017151
67    0.297523738700000   12.634882115900002    2.651663541800000    0.017824590206146    0.065393894910812    0.000004452653229
91    3.404301960299999   10.239431477000000    2.651663541800000    0.017877634614706   -0.065377995371819   -0.000044638698455
123    2.557114749400000   12.375225508500000    2.651663541800000   -0.022895734757185    0.070329979062080    0.000049967420637
139    2.498632815300000    9.134210391500000    0.855957012500000   -0.093518063426018   -0.022937297821045    0.124735578894615
23    6.510819237499998    9.217596871800000    1.000430206500000   -0.122753284871578    0.008473083376884    0.206737428903580
71    6.511080716399999   12.634882115900002    2.651663541800000    0.017786797136068    0.065422587096691   -0.000010468997061
187    5.663893132700000   10.499088084400002    2.651663541800000   -0.022878663614392   -0.070409059524536    0.000009230803698
95    9.617859099700000   10.239431477000000    2.651663541800000    0.017834438011050   -0.065380617976189    0.000013886718079
127    8.770671515900000   12.375225508500000    2.651663541800000   -0.022854857146740    0.070293053984642   -0.000051852315664
143    8.712189954599999    9.134210391500000    0.855957012500000   -0.093459554016590   -0.022917464375496    0.124735660851002
191   11.877449899200000   10.499088084400002    2.651663541800000   -0.022958308458328   -0.070253729820251   -0.000052971907280
25    0.297262781700000    2.682078702400000    4.302896728600000   -0.122716866433620    0.008552283048630   -0.206678152084351
57    3.404041227099999    0.585680473800000    4.302896728600000   -0.122600674629211   -0.008450865745544   -0.206677749752998
145    2.498632815300000    2.598692026100000    4.447369986200000   -0.093420565128326   -0.022935621440411   -0.124691329896450
153    3.714923951199999    3.936826339400000    6.159283862799999    0.093313269317150    0.024272114038467    0.124387323856354
29    6.510819237499998    2.682078702400000    4.302896728600000   -0.122830808162689    0.008636608719826   -0.206543445587158
33    5.916293922700000    3.853439467000000    6.303757438599999    0.122160166501999   -0.008412465453148    0.206725195050240
105    5.605411198500000    0.669067150100000    4.447369986200000   -0.093581408262253    0.022908538579941   -0.124699167907238
37   12.129850316399997    3.853439467000000    6.303757438599999    0.122937105596066   -0.008264616131783    0.206711173057556
61    9.617598366399999    0.585680473800000    4.302896728600000   -0.122590854763985   -0.008521601557732   -0.206675752997398
109   11.818968337799999    0.669067150100000    4.447369986200000   -0.093550935387611    0.022928297519684   -0.124749027192593
149    8.712189954599999    2.598692026100000    4.447369986200000   -0.093410357832909   -0.022914916276932   -0.124758124351501
157    9.928480344900001    3.936826339400000    6.159283862799999    0.093479506671429    0.022929742932320    0.124764449894428
49    2.809515539400000    5.949837787100000    6.303757438599999    0.122244492173195    0.007963940501213    0.207228541374207
59    3.404041227099999    7.121198551700000    4.302896728600000   -0.122957438230515   -0.009222418069839   -0.205341219902039
129    0.608145655000000    5.866450914700000    6.159283862799999    0.094937890768051   -0.022849150002003    0.124659352004528
107    5.605411198500000    7.204585032000001    4.447369986200000   -0.093595013022423    0.022966004908085   -0.124524913728237
133    6.821702707300000    5.866450914700000    6.159283862799999    0.093064934015274   -0.022685296833515    0.124981813132763
53    9.023071933099999    5.949837787100000    6.303757438599999    0.122800976037979    0.008546814322472    0.206657290458679
63    9.617598366399999    7.121198551700000    4.302896728600000   -0.122588828206062   -0.008542701601982   -0.206651329994202
111   11.818968337799999    7.204585032000001    4.447369986200000   -0.093598589301109    0.022919312119484   -0.124743357300758
27    0.297262781700000    9.217596871800000    4.302896728600000   -0.122672066092491    0.008496478199959   -0.206678003072739
51    2.809515539400000   12.485355956499999    6.303757438599999    0.122593015432358    0.008634209632874    0.206670314073563
131    0.608145655000000   12.401968705000000    6.159283862799999    0.093467332422733   -0.022890321910381    0.124809749424458
147    2.498632815300000    9.134210391500000    4.447369986200000   -0.093494363129139   -0.022970795631409   -0.124640658497810
155    3.714923951199999   10.472344887900000    6.159283862799999    0.093325987458229    0.022298052906990    0.125191003084183
31    6.510819237499998    9.217596871800000    4.302896728600000   -0.122711986303329    0.008467912673950   -0.206714004278183
35    5.916293922700000   10.388957636400002    6.303757438599999    0.122636966407299   -0.008541107177734    0.206500560045242
135    6.821702707300000   12.401968705000000    6.159283862799999    0.093458548188210   -0.022846572101116    0.124750472605228
39   12.129850316399997   10.388957636400002    6.303757438599999    0.122593328356743   -0.008350521326065    0.206479132175446
55    9.023071933099999   12.485355956499999    6.303757438599999    0.122617304325104    0.008479431271553    0.206609413027763
151    8.712189954599999    9.134210391500000    4.447369986200000   -0.093497075140476   -0.022858999669552   -0.124722763895988
159    9.928480344900001   10.472344887900000    6.159283862799999    0.093467615544796    0.022850587964058    0.124754779040813
73    2.809254619699999    2.831604665700000    7.954990625400001   -0.017803391441703    0.066450789570808    0.000244327355176
97    3.714923951199999    3.936826339400000    9.750697388000001    0.094504594802856    0.020776033401489   -0.124211043119431
113    3.656442017100000    0.695810490500000    7.954990625400001    0.023027349263430   -0.070543132722378   -0.000022861640900
177    0.549663671100000    2.571948633400000    7.954990625400001    0.022386448457837    0.070020496845245   -0.000197927933186
9    5.916293922700000    3.853439467000000    9.606223812200000    0.122191227972507   -0.008595630526543   -0.207061767578125
81    5.916033189399998    0.436154327500000    7.954990625400001   -0.017878834158182   -0.065359525382519   -0.000007676426321
181    6.763220400299998    2.571948633400000    7.954990625400001    0.022888258099556    0.070303097367287   -0.000010977266356
13   12.129850316399997    3.853439467000000    9.606223812200000    0.122731506824493   -0.008155614137650   -0.207022443413734
77    9.022811199800000    2.831604665700000    7.954990625400001   -0.017781477421522    0.065385505557060   -0.000008514616638
85   12.129589583100000    0.436154327500000    7.954990625400001   -0.017835518345237   -0.065436713397503   -0.000004268866633
101    9.928480344900001    3.936826339400000    9.750697388000001    0.093664474785328    0.022993676364422   -0.124802663922310
117    9.869998783600000    0.695810490500000    7.954990625400001    0.022977419197559   -0.070176593959332    0.000006728805602
1    2.809515539400000    5.949837787100000    9.596223812200000    0.110377967357635   -0.010371312499046   -0.173124834895134
115    3.656442017100000    7.231328999700000    7.954990625400001    0.037555254995823   -0.047656498849392   -0.031876381486654
161    0.608145655000000    5.866450914700000    9.750697388000001    0.090603113174438   -0.023460775613785   -0.124566935002804
83    5.916033189399998    6.971672392300000    7.954990625400001   -0.016302078962326   -0.065702378749847   -0.000049597118050
165    6.821702707300000    5.866450914700000    9.750697388000001    0.094036534428596   -0.023288466036320   -0.125620216131210
5    9.023071933099999    5.949837787100000    9.606223812200000    0.122834570705891    0.008447587490082   -0.206780582666397
87   12.129589583100000    6.971672392300000    7.954990625400001   -0.017288988456130   -0.065473534166813   -0.000161634117831
119    9.869998783600000    7.231328999700000    7.954990625400001    0.022857217118144   -0.070348866283894    0.000008324626833
3    2.809515539400000   12.485355956499999    9.606223812200000    0.122564010322094    0.008716791868210   -0.206741824746132
75    2.809254619699999    9.367123031200000    7.954990625400001   -0.018569303676486    0.067512370646000   -0.000379305798560
99    3.714923951199999   10.472344887900000    9.750697388000001    0.093723781406879    0.023629680275917   -0.125640213489532
163    0.608145655000000   12.401968705000000    9.750697388000001    0.093502193689346   -0.022957056760788   -0.124818325042725
179    0.549663671100000    9.107466423800000    7.954990625400001    0.023933336138725    0.069900535047054   -0.000082510756329
11    5.916293922700000   10.388957636400002    9.606223812200000    0.122666522860527   -0.008230462670326   -0.206789180636406
167    6.821702707300000   12.401968705000000    9.750697388000001    0.093396537005901   -0.022941455245018   -0.124764367938042
183    6.763220400299998    9.107466423800000    7.954990625400001    0.022225074470043    0.069532334804535    0.000121664954349
7    9.023071933099999   12.485355956499999    9.606223812200000    0.122665703296661    0.008571043610573   -0.206597834825516
15   12.129850316399997   10.388957636400002    9.606223812200000    0.122443050146103   -0.008309736847878   -0.206751197576523
79    9.022811199800000    9.367123031200000    7.954990625400001   -0.017690889537334    0.065402239561081    0.000013438519090
103    9.928480344900001   10.472344887900000    9.750697388000001    0.093538194894791    0.022777512669563   -0.124716185033321
18    0.297262781700000    2.682078702400000   11.607084522199999   -0.122488230466843    0.008473634719849    0.206869468092918
42    3.404041227099999    0.585680473800000   11.607084522199999   -0.122787117958069   -0.008331060409546    0.206707909703255
90    3.404301960299999    3.703913307600000   13.258317709000000    0.017869444563985   -0.065930187702179    0.000454083026852
138    2.498632815300000    2.598692026100000   11.462611582800001   -0.093076296150684   -0.022330060601234    0.124189250171185
22    6.510819237499998    2.682078702400000   11.607084522199999   -0.122474201023579    0.008375003933907    0.206761330366135
170    5.605411198500000    0.669067150100000   11.462611582800001   -0.093380481004715    0.022910788655281    0.124751485884190
186    5.663893132700000    3.963569536000000   13.258317709000000   -0.022612381726503   -0.070402190089226    0.000153626780957
46    9.617598366399999    0.585680473800000   11.607084522199999   -0.122695550322533   -0.008554443717003    0.206694483757019
94    9.617859099700000    3.703913307600000   13.258317709000000    0.017837658524513   -0.065349347889423    0.000027334550396
142    8.712189954599999    2.598692026100000   11.462611582800001   -0.093452878296375   -0.022972106933594    0.124799787998199
174   11.818968337799999    0.669067150100000   11.462611582800001   -0.093568086624146    0.022767923772335    0.124806866049767
190   11.877449899200000    3.963569536000000   13.258317709000000   -0.023040784522891   -0.070158898830414    0.000127518549562
44    3.404041227099999    7.121198551700000   11.607084522199999   -0.125728577375412   -0.013264358043671    0.199268057942390
66    0.297523738700000    6.099363946500000   13.258317709000000    0.017238590866327    0.065500862896442    0.000598167069256
122    2.557114749400000    5.839707718100000   13.258317709000000   -0.023547163233161    0.069987483322620    0.001919086324051
70    6.511080716399999    6.099363946500000   13.258317709000000    0.018132304772735    0.064867764711380    0.000880768522620
172    5.605411198500000    7.204585032000001   11.462611582800001   -0.091748625040054    0.024857282638550    0.125640034675598
48    9.617598366399999    7.121198551700000   11.607084522199999   -0.122527159750462   -0.008510887622833    0.206711083650589
126    8.770671515900000    5.839707718100000   13.258317709000000   -0.023012027144432    0.070396333932877   -0.000034160912037
176   11.818968337799999    7.204585032000001   11.462611582800001   -0.094323009252548    0.022828169167042    0.124797783792019
20    0.297262781700000    9.217596871800000   11.607084522199999   -0.122257322072983    0.007997512817383    0.206953018903732
68    0.297523738700000   12.634882115900002   13.258317709000000    0.017767388373613    0.065375521779060    0.000024101231247
92    3.404301960299999   10.239431477000000   13.258317709000000    0.017869338393211   -0.065850295126438   -0.000143889483297
124    2.557114749400000   12.375225508500000   13.258317709000000   -0.022839304059744    0.070288129150867    0.000114313152153
140    2.498632815300000    9.134210391500000   11.462611582800001   -0.093331456184387   -0.022455930709839    0.124815747141838
24    6.510819237499998    9.217596871800000   11.607084522199999   -0.123051963746548    0.008377149701118    0.206821456551552
72    6.511080716399999   12.634882115900002   13.258317709000000    0.017820434644818    0.065393321216106    0.000022779218853
188    5.663893132700000   10.499088084400002   13.258317709000000   -0.022828815504909   -0.070322059094906    0.000078779179603
96    9.617859099700000   10.239431477000000   13.258317709000000    0.017856722697616   -0.065401814877987   -0.000000996282324
128    8.770671515900000   12.375225508500000   13.258317709000000   -0.022855509072542    0.070352107286453    0.000037956513552
144    8.712189954599999    9.134210391500000   11.462611582800001   -0.093628503382206   -0.023040629923344    0.124733157455921
192   11.877449899200000   10.499088084400002   13.258317709000000   -0.022956406697631   -0.070317730307579    0.000145623460412
26    0.297262781700000    2.682078702400000   14.909550895800001   -0.122577801346779    0.008544877171516   -0.206720709800720
58    3.404041227099999    0.585680473800000   14.909550895800001   -0.122655339539051   -0.008500576019287   -0.206692844629288
146    2.498632815300000    2.598692026100000   15.054023835200001   -0.093447245657444   -0.023000143468380   -0.124664545059204
154    3.714923951199999    3.936826339400000   16.765937393600002    0.093479409813881    0.022963181138039    0.124732278287411
30    6.510819237499998    2.682078702400000   14.909550895800001   -0.122592806816101    0.008410066366196   -0.206672027707100
34    5.916293922700000    3.853439467000000   16.910411605800000    0.122639104723930   -0.008466169238091    0.206704825162888
106    5.605411198500000    0.669067150100000   15.054023835200001   -0.093478523194790    0.023001767694950   -0.124752067029476
38   12.129850316399997    3.853439467000000   16.910411605800000    0.122648067772388   -0.008467733860016    0.206724822521210
62    9.617598366399999    0.585680473800000   14.909550895800001   -0.122633799910545   -0.008452743291855   -0.206720262765884
110   11.818968337799999    0.669067150100000   15.054023835200001   -0.093526989221573    0.022931233048439   -0.124706253409386
150    8.712189954599999    2.598692026100000   15.054023835200001   -0.093528971076012   -0.023000083863735   -0.124740526080132
158    9.928480344900001    3.936826339400000   16.765937393600002    0.093510054051876    0.022995457053185    0.124750301241875
50    2.809515539400000    5.949837787100000   16.910411605800000    0.122681602835655    0.008477494120598    0.206724137067795
60    3.404041227099999    7.121198551700000   14.909550895800001   -0.122107088565826   -0.007637351751328   -0.205479949712753
130    0.608145655000000    5.866450914700000   16.765937393600002    0.093466147780418   -0.022987686097622    0.124795481562614
108    5.605411198500000    7.204585032000001   15.054023835200001   -0.093637369573116    0.022938564419746   -0.124563679099083
134    6.821702707300000    5.866450914700000   16.765937393600002    0.093423910439014   -0.022849567234516    0.124610498547554
54    9.023071933099999    5.949837787100000   16.910411605800000    0.122639685869217    0.008460268378258    0.206739768385887
64    9.617598366399999    7.121198551700000   14.909550895800001   -0.122655048966408   -0.008470505475998   -0.206741005182266
112   11.818968337799999    7.204585032000001   15.054023835200001   -0.093477070331573    0.022917732596397   -0.124856561422348
28    0.297262781700000    9.217596871800000   14.909550895800001   -0.122625187039375    0.008484005928040   -0.206713914871216
52    2.809515539400000   12.485355956499999   16.910411605800000    0.122630216181278    0.008442878723145    0.206716418266296
132    0.608145655000000   12.401968705000000   16.765937393600002    0.093493774533272   -0.022976450622082    0.124734677374363
148    2.498632815300000    9.134210391500000   15.054023835200001   -0.093324139714241   -0.023106463253498   -0.124339543282986
156    3.714923951199999   10.472344887900000   16.765937393600002    0.093429908156395    0.022813476622105    0.124605648219585
32    6.510819237499998    9.217596871800000   14.909550895800001   -0.122585833072662    0.008454099297523   -0.206591293215752
36    5.916293922700000   10.388957636400002   16.910411605800000    0.122634142637253   -0.008463233709335    0.206694409251213
136    6.821702707300000   12.401968705000000   16.765937393600002    0.093508280813694   -0.022975869476795    0.124755360186100
40   12.129850316399997   10.388957636400002   16.910411605800000    0.122656188905239   -0.008458301424980    0.206692904233932
56    9.023071933099999   12.485355956499999   16.910411605800000    0.122631400823593    0.008450657129288    0.206735327839851
152    8.712189954599999    9.134210391500000   15.054023835200001   -0.093505330383778   -0.022940747439861   -0.124709665775299
160    9.928480344900001   10.472344887900000   16.765937393600002    0.093512415885925    0.022966124117374    0.124743394553661
74    2.809254619699999    2.831604665700000   18.561644792599999   -0.017801698297262    0.065405584871769   -0.000003765802830
98    3.714923951199999    3.936826339400000   20.357352191600000    0.093518979847431    0.022970430552959   -0.124791190028191
114    3.656442017100000    0.695810490500000   18.561644792599999    0.022868337109685   -0.070361614227295   -0.000014478573576
178    0.549663671100000    2.571948633400000   18.561644792599999    0.022857623174787    0.070359475910664   -0.000024343142286
10    5.916293922700000    3.853439467000000   20.212877979400002    0.122632279992104   -0.008454665541649   -0.206718057394028
82    5.916033189399998    0.436154327500000   18.561644792599999   -0.017806688323617   -0.065397642552853    0.000001193955541
182    6.763220400299998    2.571948633400000   18.561644792599999    0.022879090160131    0.070351481437683    0.000001072185114
14   12.129850316399997    3.853439467000000   20.212877979400002    0.122632287442684   -0.008480399847031   -0.206725969910622
78    9.022811199800000    2.831604665700000   18.561644792599999   -0.017806170508265    0.065396063029766   -0.000006788875908
86   12.129589583100000    0.436154327500000   18.561644792599999   -0.017804633826017   -0.065405905246735    0.000006550086709
102    9.928480344900001    3.936826339400000   20.357352191600000    0.093487299978733    0.022955767810345   -0.124767854809761
118    9.869998783600000    0.695810490500000   18.561644792599999    0.022864561527967   -0.070357434451580   -0.000016093254089
2    2.809515539400000    5.949837787100000   20.212877979400002    0.122638523578644    0.008465990424156   -0.206700950860977
116    3.656442017100000    7.231328999700000   18.561644792599999    0.022889250889421   -0.070318378508091   -0.000048248672101
162    0.608145655000000    5.866450914700000   20.357352191600000    0.093497678637505   -0.022948011755943   -0.124774470925331
84    5.916033189399998    6.971672392300000   18.561644792599999   -0.017814178019762   -0.065394751727581   -0.000017002945242
166    6.821702707300000    5.866450914700000   20.357352191600000    0.093510158360004   -0.023000985383987   -0.124803580343723
6    9.023071933099999    5.949837787100000   20.212877979400002    0.122630819678307    0.008457094430923   -0.206724613904953
88   12.129589583100000    6.971672392300000   18.561644792599999   -0.017814224585891   -0.065382011234760    0.000009132413652
120    9.869998783600000    7.231328999700000   18.561644792599999    0.022862378507853   -0.070364788174629   -0.000034735538065
4    2.809515539400000   12.485355956499999   20.212877979400002    0.122631043195724    0.008456081151962   -0.206716284155846
76    2.809254619699999    9.367123031200000   18.561644792599999   -0.017800763249397    0.065395027399063   -0.000000720843673
100    3.714923951199999   10.472344887900000   20.357352191600000    0.093530401587486    0.022992610931396   -0.124828852713108
164    0.608145655000000   12.401968705000000   20.357352191600000    0.093513868749142   -0.022996008396149   -0.124813571572304
180    0.549663671100000    9.107466423800000   18.561644792599999    0.022870179265738    0.070350833237171   -0.000022958731279
12    5.916293922700000   10.388957636400002   20.212877979400002    0.122629240155220   -0.008457854390144   -0.206720918416977
168    6.821702707300000   12.401968705000000   20.357352191600000    0.093494296073914   -0.022977612912655   -0.124791063368320
184    6.763220400299998    9.107466423800000   18.561644792599999    0.022853577509522    0.070365868508816   -0.000007310183719
8    9.023071933099999   12.485355956499999   20.212877979400002    0.122642472386360    0.008453860878944   -0.206723630428314
16   12.129850316399997   10.388957636400002   20.212877979400002    0.122638963162899   -0.008457764983177   -0.206709682941437
80    9.022811199800000    9.367123031200000   18.561644792599999   -0.017793443053961    0.065396882593632   -0.000000487081707
104    9.928480344900001   10.472344887900000   20.357352191600000    0.093515455722809    0.022983647882938   -0.124801933765411
