ITEM: TIMESTEP
0
ITEM: NUMBER OF ATOMS
192
ITEM: BOX BOUNDS xy xz yz pp pp pp
0.0000000000000000e+00 1.2427113533000000e+01 0.0000000000000000e+00
0.0000000000000000e+00 1.3071036338800001e+01 0.0000000000000000e+00
0.0000000000000000e+00 2.1213308334400001e+01 0.0000000000000000e+00
ITEM: ATOMS id xu yu zu fx fy fz
17    0.297262781700000    2.682078702400000    1.000430206500000   -0.122645795345306    0.008548393845558    0.206720173358917
41    3.404041227099999    0.585680473800000    1.000430206500000   -0.122660830616951   -0.008476600050926    0.206646531820297
89    3.404301960299999    3.703913307600000    2.651663541800000    0.017846811562777   -0.065409913659096    0.000007072230801
137    2.498632815300000    2.598692026100000    0.855957012500000   -0.093517534434795   -0.022951573133469    0.124733440577984
21    6.510819237499998    2.682078702400000    1.000430206500000   -0.122715815901756    0.008526697754860    0.206653386354446
169    5.605411198500000    0.669067150100000    0.855957012500000   -0.093470223248005    0.022902034223080    0.124735109508038
185    5.663893132700000    3.963569536000000    2.651663541800000   -0.022882044315338   -0.070341125130653    0.000005478970706
45    9.617598366399999    0.585680473800000    1.000430206500000   -0.122685402631760   -0.008507013320923    0.206704854965210
93    9.617859099700000    3.703913307600000    2.651663541800000    0.017840664833784   -0.065407767891884    0.000014866236597
141    8.712189954599999    2.598692026100000    0.855957012500000   -0.093404747545719   -0.022934518754482    0.124708682298660
173   11.818968337799999    0.669067150100000    0.855957012500000   -0.093505337834358    0.022935941815376    0.124732464551926
189   11.877449899200000    3.963569536000000    2.651663541800000   -0.022866483777761   -0.070397533476353    0.000000003622972
43    3.404041227099999    7.121198551700000    1.000430206500000   -0.122668229043484   -0.008514747023582    0.206676393747330
65    0.297523738700000    6.099363946500000    2.651663541800000    0.017820784822106    0.065390996634960   -0.000029236078262
121    2.557114749400000    5.839707718100000    2.651663541800000   -0.022921018302441    0.070261687040329   -0.000019523547962
69    6.511080716399999    6.099363946500000    2.651663541800000    0.017801402136683    0.065398082137108    0.000013185665011
171    5.605411198500000    7.204585032000001    0.855957012500000   -0.093423895537853    0.023019179701805    0.124719686806202
47    9.617598366399999    7.121198551700000    1.000430206500000   -0.122600160539150   -0.008543357253075    0.206690981984138
125    8.770671515900000    5.839707718100000    2.651663541800000   -0.022880598902702    0.070331141352654   -0.000029596965760
175   11.818968337799999    7.204585032000001    0.855957012500000   -0.093529537320137    0.022965468466282    0.124709621071815
19    0.297262781700000    9.217596871800000    1.000430206500000   -0.122676894068718    0.008465945720673    0.206655025482178
67    0.297523738700000   12.634882115900002    2.651663541800000    0.017825810238719    0.065394312143326    0.000003527384251
91    3.404301960299999   10.239431477000000    2.651663541800000    0.017873188480735   -0.065389096736908   -0.000023570051781
123    2.557114749400000   12.375225508500000    2.651663541800000   -0.022889591753483    0.070346228778362    0.000060140489950
139    2.498632815300000    9.134210391500000    0.855957012500000   -0.093517802655697   -0.022936373949051    0.124727942049503
23    6.510819237499998    9.217596871800000    1.000430206500000   -0.122751057147980    0.008477553725243    0.206731885671616
71    6.511080716399999   12.634882115900002    2.651663541800000    0.017787218093872    0.065418839454651   -0.000014099292457
187    5.663893132700000   10.499088084400002    2.651663541800000   -0.022884296253324   -0.070397920906544   -0.000007550232112
95    9.617859099700000   10.239431477000000    2.651663541800000    0.017833279445767   -0.065380401909351    0.000014980789274
127    8.770671515900000   12.375225508500000    2.651663541800000   -0.022852811962366    0.070285230875015   -0.000055789016187
143    8.712189954599999    9.134210391500000    0.855957012500000   -0.093461960554123   -0.022918246686459    0.124736286699772
191   11.877449899200000   10.499088084400002    2.651663541800000   -0.022960824891925   -0.070261985063553   -0.000044444717787
25    0.297262781700000    2.682078702400000    4.302896728600000   -0.122777193784714    0.008449852466583   -0.206729590892792
57    3.404041227099999    0.585680473800000    4.302896728600000   -0.122565403580666   -0.008623167872429   -0.206757247447968
145    2.498632815300000    2.598692026100000    4.447369986200000   -0.093571409583092   -0.022950381040573   -0.124797217547894
153    3.714923951199999    3.936826339400000    6.159283862799999    0.093160763382912    0.023779489099979    0.124716222286224
29    6.510819237499998    2.682078702400000    4.302896728600000   -0.122651785612106    0.008487015962601   -0.206695288419724
33    5.916293922700000    3.853439467000000    6.303757438599999    0.122826106846333   -0.008792459964752    0.206412672996521
105    5.605411198500000    0.669067150100000    4.447369986200000   -0.093548119068146    0.022922024130821   -0.124796740710735
37   12.129850316399997    3.853439467000000    6.303757438599999    0.122534401714802   -0.008815929293633    0.206574499607086
61    9.617598366399999    0.585680473800000    4.302896728600000   -0.122590214014053   -0.008494213223457   -0.206679672002792
109   11.818968337799999    0.669067150100000    4.447369986200000   -0.093494571745396    0.022984363138676   -0.124765023589134
149    8.712189954599999    2.598692026100000    4.447369986200000   -0.093507647514343   -0.022895805537701   -0.124761059880257
157    9.928480344900001    3.936826339400000    6.159283862799999    0.093436151742935    0.022906102240086    0.124692201614380
49    2.809515539400000    5.949837787100000    6.303757438599999    0.122965663671494    0.009338349103928    0.206104159355164
59    3.404041227099999    7.121198551700000    4.302896728600000   -0.122762009501457   -0.008886516094208   -0.205838218331337
129    0.608145655000000    5.866450914700000    6.159283862799999    0.094290681183338   -0.022904850542545    0.125112473964691
107    5.605411198500000    7.204585032000001    4.447369986200000   -0.093774937093258    0.022926144301891   -0.124513737857342
133    6.821702707300000    5.866450914700000    6.159283862799999    0.093173816800117   -0.022744938731194    0.124907009303570
53    9.023071933099999    5.949837787100000    6.303757438599999    0.122793048620224    0.008547633886337    0.206659764051437
63    9.617598366399999    7.121198551700000    4.302896728600000   -0.122629486024380   -0.008548766374588   -0.206660345196724
111   11.818968337799999    7.204585032000001    4.447369986200000   -0.093687273561954    0.023001380264759   -0.124908559024334
27    0.297262781700000    9.217596871800000    4.302896728600000   -0.122684061527252    0.008556917309761   -0.206770420074463
51    2.809515539400000   12.485355956499999    6.303757438599999    0.122651308774948    0.008805170655251    0.206726729869843
131    0.608145655000000   12.401968705000000    6.159283862799999    0.093453280627728   -0.022890560328960    0.124759599566460
147    2.498632815300000    9.134210391500000    4.447369986200000   -0.093466185033321   -0.023031547665596   -0.124645903706551
155    3.714923951199999   10.472344887900000    6.159283862799999    0.093399465084076    0.022442787885666    0.125152587890625
31    6.510819237499998    9.217596871800000    4.302896728600000   -0.122712105512619    0.008508697152138   -0.206722378730774
35    5.916293922700000   10.388957636400002    6.303757438599999    0.122646667063236   -0.008504450321198    0.206563770771027
135    6.821702707300000   12.401968705000000    6.159283862799999    0.093452624976635   -0.022914640605450    0.124774292111397
39   12.129850316399997   10.388957636400002    6.303757438599999    0.122659943997860   -0.008440062403679    0.206665843725204
55    9.023071933099999   12.485355956499999    6.303757438599999    0.122622832655907    0.008492812514305    0.206610828638077
151    8.712189954599999    9.134210391500000    4.447369986200000   -0.093457430601120   -0.022859707474709   -0.124723061919212
159    9.928480344900001   10.472344887900000    6.159283862799999    0.093448728322983    0.022854477167130    0.124738998711109
73    2.809254619699999    2.831604665700000    7.954990625400001   -0.016886837780476    0.064824037253857    0.000743030570447
97    3.714923951199999    3.936826339400000    9.750697388000001    0.070579491555691    0.054565750062466   -0.120427377521992
113    3.656442017100000    0.695810490500000    7.954990625400001    0.022795684635639   -0.070801503956318   -0.000457592541352
177    0.549663671100000    2.571948633400000    7.954990625400001    0.022697586566210    0.070112265646458   -0.000491367420182
9    5.916293922700000    3.853439467000000    9.606223812200000    0.121262662112713   -0.007888570427895   -0.206353604793549
81    5.916033189399998    0.436154327500000    7.954990625400001   -0.017904842272401   -0.065311744809151   -0.000001546926796
181    6.763220400299998    2.571948633400000    7.954990625400001    0.023779122158885    0.069557383656502   -0.001113951439038
13   12.129850316399997    3.853439467000000    9.606223812200000    0.122346222400665   -0.007919520139694   -0.206737309694290
77    9.022811199800000    2.831604665700000    7.954990625400001   -0.017826545983553    0.065388061106205   -0.000015476718545
85   12.129589583100000    0.436154327500000    7.954990625400001   -0.017799319699407   -0.065373934805393   -0.000007217435268
101    9.928480344900001    3.936826339400000    9.750697388000001    0.093826711177826    0.023060932755470   -0.125010728836060
117    9.869998783600000    0.695810490500000    7.954990625400001    0.022940751165152   -0.070199802517891    0.000026573427022
1    2.809515539400000    5.959837787100000    9.606223812200000    0.128439068794250   -0.045755103230476   -0.189052060246468
115    3.656442017100000    7.231328999700000    7.954990625400001    0.032379873096943   -0.054667107760906   -0.019230067729950
161    0.608145655000000    5.866450914700000    9.750697388000001    0.094073146581650   -0.022664718329906   -0.124344795942307
83    5.916033189399998    6.971672392300000    7.954990625400001   -0.017445951700211   -0.065650463104248    0.000389565248042
165    6.821702707300000    5.866450914700000    9.750697388000001    0.093801409006119   -0.021468371152878   -0.124792523682117
5    9.023071933099999    5.949837787100000    9.606223812200000    0.122402310371399    0.008363589644432   -0.206641241908073
87   12.129589583100000    6.971672392300000    7.954990625400001   -0.017116514965892   -0.065785869956017    0.000661363534164
119    9.869998783600000    7.231328999700000    7.954990625400001    0.022878255695105   -0.070268169045448   -0.000053801108152
3    2.809515539400000   12.485355956499999    9.606223812200000    0.122562684118748    0.008835896849632   -0.206853121519089
75    2.809254619699999    9.367123031200000    7.954990625400001   -0.018058726564050    0.066106170415878    0.000089015811682
99    3.714923951199999   10.472344887900000    9.750697388000001    0.093632183969021    0.021961919963360   -0.125408738851547
163    0.608145655000000   12.401968705000000    9.750697388000001    0.093430772423744   -0.022762209177017   -0.124717548489571
179    0.549663671100000    9.107466423800000    7.954990625400001    0.024193700402975    0.069549955427647    0.000158478040248
11    5.916293922700000   10.388957636400002    9.606223812200000    0.122607186436653   -0.008663877844810   -0.206468403339386
167    6.821702707300000   12.401968705000000    9.750697388000001    0.093478709459305   -0.022987127304077   -0.124766916036606
183    6.763220400299998    9.107466423800000    7.954990625400001    0.022420424968004    0.069759517908096   -0.000046255066991
7    9.023071933099999   12.485355956499999    9.606223812200000    0.122661590576172    0.008544325828552   -0.206629514694214
15   12.129850316399997   10.388957636400002    9.606223812200000    0.122779950499535   -0.008670747280121   -0.206335887312889
79    9.022811199800000    9.367123031200000    7.954990625400001   -0.017746195197105    0.065399587154388   -0.000015276018530
103    9.928480344900001   10.472344887900000    9.750697388000001    0.093265146017075    0.022829383611679   -0.124706812202930
18    0.297262781700000    2.682078702400000   11.607084522199999   -0.122277945280075    0.008968368172646    0.206159844994545
42    3.404041227099999    0.585680473800000   11.607084522199999   -0.122853815555573   -0.007422283291817    0.206498786807060
90    3.404301960299999    3.703913307600000   13.258317709000000    0.017771903425455   -0.065161779522896    0.000286499911454
138    2.498632815300000    2.598692026100000   11.462611582800001   -0.088230162858963   -0.016985245049000    0.116960801184177
22    6.510819237499998    2.682078702400000   11.607084522199999   -0.123159527778625    0.008661061525345    0.206581577658653
170    5.605411198500000    0.669067150100000   11.462611582800001   -0.093106105923653    0.022537045180798    0.125106051564217
186    5.663893132700000    3.963569536000000   13.258317709000000   -0.022689471021295   -0.070384159684181    0.000449340324849
46    9.617598366399999    0.585680473800000   11.607084522199999   -0.122685663402081   -0.008582353591919    0.206724882125854
94    9.617859099700000    3.703913307600000   13.258317709000000    0.017870889976621   -0.065315537154675    0.000147848855704
142    8.712189954599999    2.598692026100000   11.462611582800001   -0.093365952372551   -0.023334942758083    0.125287756323814
174   11.818968337799999    0.669067150100000   11.462611582800001   -0.093633532524109    0.022424817085266    0.124830096960068
190   11.877449899200000    3.963569536000000   13.258317709000000   -0.023077657446265   -0.070212349295616    0.000356666743755
44    3.404041227099999    7.121198551700000   11.607084522199999   -0.120110809803009   -0.005094334483147    0.212059944868088
66    0.297523738700000    6.099363946500000   13.258317709000000    0.017945049330592    0.065362386405468    0.000086535699666
122    2.557114749400000    5.839707718100000   13.258317709000000   -0.022771039977670    0.071070440113544    0.000984176294878
70    6.511080716399999    6.099363946500000   13.258317709000000    0.017708631232381    0.065754354000092   -0.000535949133337
172    5.605411198500000    7.204585032000001   11.462611582800001   -0.096284218132496    0.022066883742809    0.123808771371841
48    9.617598366399999    7.121198551700000   11.607084522199999   -0.122714117169380   -0.008421644568443    0.206781253218651
126    8.770671515900000    5.839707718100000   13.258317709000000   -0.022738616913557    0.070337399840355    0.000041223131120
176   11.818968337799999    7.204585032000001   11.462611582800001   -0.092631667852402    0.022872984409332    0.124304600059986
20    0.297262781700000    9.217596871800000   11.607084522199999   -0.123258970677853    0.008901759982109    0.206665337085724
68    0.297523738700000   12.634882115900002   13.258317709000000    0.017829991877079    0.065417908132076   -0.000008377712220
92    3.404301960299999   10.239431477000000   13.258317709000000    0.017927661538124   -0.064868375658989    0.000395756767830
124    2.557114749400000   12.375225508500000   13.258317709000000   -0.022858422249556    0.070190578699112    0.000068046443630
140    2.498632815300000    9.134210391500000   11.462611582800001   -0.093588285148144   -0.026125997304916    0.124299734830856
24    6.510819237499998    9.217596871800000   11.607084522199999   -0.122309669852257    0.008645504713058    0.206655859947205
72    6.511080716399999   12.634882115900002   13.258317709000000    0.017842581495643    0.065392613410950    0.000029266811907
188    5.663893132700000   10.499088084400002   13.258317709000000   -0.022963153198361   -0.070423200726509   -0.000030408613384
96    9.617859099700000   10.239431477000000   13.258317709000000    0.017764769494534   -0.065392322838306    0.000010014045984
128    8.770671515900000   12.375225508500000   13.258317709000000   -0.022873580455780    0.070362262427807    0.000011586580513
144    8.712189954599999    9.134210391500000   11.462611582800001   -0.093376651406288   -0.022895060479641    0.124774239957333
192   11.877449899200000   10.499088084400002   13.258317709000000   -0.022783916443586   -0.070479966700077   -0.000131110660732
26    0.297262781700000    2.682078702400000   14.909550895800001   -0.122682571411133    0.008432433009148   -0.206638932228088
58    3.404041227099999    0.585680473800000   14.909550895800001   -0.122621439397335   -0.008526980876923   -0.206626981496811
146    2.498632815300000    2.598692026100000   15.054023835200001   -0.093470759689808   -0.022930279374123   -0.124641545116901
154    3.714923951199999    3.936826339400000   16.765937393600002    0.093502260744572    0.022954866290092    0.124836586415768
30    6.510819237499998    2.682078702400000   14.909550895800001   -0.122596681118011    0.008412629365921   -0.206645011901855
34    5.916293922700000    3.853439467000000   16.910411605800000    0.122640460729599   -0.008456990122795    0.206718593835831
106    5.605411198500000    0.669067150100000   15.054023835200001   -0.093484126031399    0.023005828261375   -0.124742634594440
38   12.129850316399997    3.853439467000000   16.910411605800000    0.122638642787933   -0.008466884493828    0.206748276948929
62    9.617598366399999    0.585680473800000   14.909550895800001   -0.122649595141411   -0.008435264229774   -0.206733554601669
110   11.818968337799999    0.669067150100000   15.054023835200001   -0.093529239296913    0.022978216409683   -0.124705202877522
150    8.712189954599999    2.598692026100000   15.054023835200001   -0.093549087643623   -0.022998563945293   -0.124755054712296
158    9.928480344900001    3.936826339400000   16.765937393600002    0.093505747616291    0.022980511188507    0.124752849340439
50    2.809515539400000    5.949837787100000   16.910411605800000    0.122614711523056    0.008413851261139    0.206752106547356
60    3.404041227099999    7.121198551700000   14.909550895800001   -0.122790820896626   -0.008791401982307   -0.207415282726288
130    0.608145655000000    5.866450914700000   16.765937393600002    0.093488842248917   -0.022991500794888    0.124808058142662
108    5.605411198500000    7.204585032000001   15.054023835200001   -0.093536220490932    0.023020111024380   -0.124786406755447
134    6.821702707300000    5.866450914700000   16.765937393600002    0.093544602394104   -0.023012809455395    0.124803796410561
54    9.023071933099999    5.949837787100000   16.910411605800000    0.122641779482365    0.008448168635368    0.206749424338341
64    9.617598366399999    7.121198551700000   14.909550895800001   -0.122644901275635   -0.008435368537903   -0.206709474325180
112   11.818968337799999    7.204585032000001   15.054023835200001   -0.093544535338879    0.023048423230648   -0.124748170375824
28    0.297262781700000    9.217596871800000   14.909550895800001   -0.122594945132732    0.008363217115402   -0.206743955612183
52    2.809515539400000   12.485355956499999   16.910411605800000    0.122635208070278    0.008458256721497    0.206728488206863
132    0.608145655000000   12.401968705000000   16.765937393600002    0.093506127595901   -0.022959440946579    0.124752447009087
148    2.498632815300000    9.134210391500000   15.054023835200001   -0.093555115163326   -0.022975616157055   -0.125027135014534
156    3.714923951199999   10.472344887900000   16.765937393600002    0.093531765043736    0.023029610514641    0.124799273908138
32    6.510819237499998    9.217596871800000   14.909550895800001   -0.122674852609634    0.008409157395363   -0.206843748688698
36    5.916293922700000   10.388957636400002   16.910411605800000    0.122635863721371   -0.008443385362625    0.206746041774750
136    6.821702707300000   12.401968705000000   16.765937393600002    0.093506462872028   -0.022973999381065    0.124751798808575
40   12.129850316399997   10.388957636400002   16.910411605800000    0.122635692358017   -0.008437961339951    0.206743419170380
56    9.023071933099999   12.485355956499999   16.910411605800000    0.122636631131172    0.008451148867607    0.206733539700508
152    8.712189954599999    9.134210391500000   15.054023835200001   -0.093513488769531   -0.022985368967056   -0.124757900834084
160    9.928480344900001   10.472344887900000   16.765937393600002    0.093491263687611    0.022964246571064    0.124748788774014
74    2.809254619699999    2.831604665700000   18.561644792599999   -0.017797822132707    0.065400816500187   -0.000003400258720
98    3.714923951199999    3.936826339400000   20.357352191600000    0.093519032001495    0.022971540689468   -0.124793261289597
114    3.656442017100000    0.695810490500000   18.561644792599999    0.022866155952215   -0.070362180471420   -0.000023426488042
178    0.549663671100000    2.571948633400000   18.561644792599999    0.022861316800117    0.070361629128456   -0.000030847964808
10    5.916293922700000    3.853439467000000   20.212877979400002    0.122626796364784   -0.008452787995338   -0.206716030836105
82    5.916033189399998    0.436154327500000   18.561644792599999   -0.017807302996516   -0.065400332212448    0.000001939013600
182    6.763220400299998    2.571948633400000   18.561644792599999    0.022869158536196    0.070361822843552   -0.000017899787053
14   12.129850316399997    3.853439467000000   20.212877979400002    0.122633568942547   -0.008477151393890   -0.206723660230637
78    9.022811199800000    2.831604665700000   18.561644792599999   -0.017804531380534    0.065397098660469   -0.000006735790521
86   12.129589583100000    0.436154327500000   18.561644792599999   -0.017805093899369   -0.065406158566475    0.000005818067166
102    9.928480344900001    3.936826339400000   20.357352191600000    0.093485698103905    0.022955738008022   -0.124769367277622
118    9.869998783600000    0.695810490500000   18.561644792599999    0.022864691913128   -0.070356324315071   -0.000015486963093
2    2.809515539400000    5.949837787100000   20.212877979400002    0.122637450695038    0.008460626006126   -0.206720888614655
116    3.656442017100000    7.231328999700000   18.561644792599999    0.022862318903208   -0.070371083915234    0.000005749736829
162    0.608145655000000    5.866450914700000   20.357352191600000    0.093497633934021   -0.022945761680603   -0.124771907925606
84    5.916033189399998    6.971672392300000   18.561644792599999   -0.017806954681873   -0.065399535000324   -0.000012763564882
166    6.821702707300000    5.866450914700000   20.357352191600000    0.093508645892143   -0.022998563945293   -0.124796815216541
6    9.023071933099999    5.949837787100000   20.212877979400002    0.122630849480629    0.008456036448479   -0.206722155213356
88   12.129589583100000    6.971672392300000   18.561644792599999   -0.017810339108109   -0.065391167998314   -0.000004040212843
120    9.869998783600000    7.231328999700000   18.561644792599999    0.022865835577250   -0.070360727608204   -0.000033639371395
4    2.809515539400000   12.485355956499999   20.212877979400002    0.122631065547466    0.008454978466034   -0.206714972853661
76    2.809254619699999    9.367123031200000   18.561644792599999   -0.017800448462367    0.065396904945374   -0.000005844514817
100    3.714923951199999   10.472344887900000   20.357352191600000    0.093528985977173    0.022992417216301   -0.124823197722435
164    0.608145655000000   12.401968705000000   20.357352191600000    0.093516118824482   -0.022996492683887   -0.124814808368683
180    0.549663671100000    9.107466423800000   18.561644792599999    0.022866779938340    0.070347741246223   -0.000019802013412
12    5.916293922700000   10.388957636400002   20.212877979400002    0.122628301382065   -0.008457660675049   -0.206719845533371
168    6.821702707300000   12.401968705000000   20.357352191600000    0.093496821820736   -0.022977150976658   -0.124792754650116
184    6.763220400299998    9.107466423800000   18.561644792599999    0.022854745388031    0.070375159382820   -0.000013662502170
8    9.023071933099999   12.485355956499999   20.212877979400002    0.122642345726490    0.008453682065010   -0.206723362207413
16   12.129850316399997   10.388957636400002   20.212877979400002    0.122637160122395   -0.008456900715828   -0.206707477569580
80    9.022811199800000    9.367123031200000   18.561644792599999   -0.017791267484426    0.065399438142776   -0.000000507105142
104    9.928480344900001   10.472344887900000   20.357352191600000    0.093514360487461    0.022983752191067   -0.124802626669407
