ITEM: TIMESTEP
0
ITEM: NUMBER OF ATOMS
192
ITEM: BOX BOUNDS xy xz yz pp pp pp
0.0000000000000000e+00 1.2427113533000000e+01 0.0000000000000000e+00
0.0000000000000000e+00 1.3071036338800001e+01 0.0000000000000000e+00
0.0000000000000000e+00 2.1213308334400001e+01 0.0000000000000000e+00
ITEM: ATOMS id xu yu zu fx fy fz
17    0.297262781700000    2.682078702400000    1.000430206500000   -0.122751004993916    0.008788585662842    0.207487538456917
41    3.404041227099999    0.585680473800000    1.000430206500000   -0.122594654560089   -0.008541002869606    0.206689625978470
89    3.404301960299999    3.703913307600000    2.651663541800000    0.019310848787427   -0.068295642733574    0.000006441492587
137    2.498632815300000    2.598692026100000    0.855957012500000   -0.093564651906490   -0.022396750748158    0.125171691179276
21    6.510819237499998    2.682078702400000    1.000430206500000   -0.122643962502480    0.008461594581604    0.206537991762161
169    5.605411198500000    0.669067150100000    0.855957012500000   -0.093500889837742    0.022863127291203    0.124731510877609
185    5.663893132700000    3.963569536000000    2.651663541800000   -0.023560684174299   -0.069982238113880    0.000030691735446
45    9.617598366399999    0.585680473800000    1.000430206500000   -0.122673399746418   -0.008497074246407    0.206730157136917
93    9.617859099700000    3.703913307600000    2.651663541800000    0.019324615597725   -0.064925141632557    0.000000630971044
141    8.712189954599999    2.598692026100000    0.855957012500000   -0.093476787209511   -0.023021332919598    0.124658815562725
173   11.818968337799999    0.669067150100000    0.855957012500000   -0.093466140329838    0.022938892245293    0.124669522047043
189   11.877449899200000    3.963569536000000    2.651663541800000   -0.019703451544046   -0.063865460455418   -0.000020118997782
43    3.404041227099999    7.121198551700000    1.000430206500000   -0.123273923993111   -0.008175700902939    0.205172121524811
65    0.307523738700000    6.099363946500000    2.651663541800000   -0.017583051696420    0.068150490522385   -0.000003400258720
121    2.557114749400000    5.839707718100000    2.651663541800000    0.000750342383981    0.066567249596119   -0.000020356616005
69    6.511080716399999    6.099363946500000    2.651663541800000    0.017769638448954    0.065434969961643    0.000004811212420
171    5.605411198500000    7.204585032000001    0.855957012500000   -0.093370482325554    0.023028738796711    0.124960273504257
47    9.617598366399999    7.121198551700000    1.000430206500000   -0.122086420655251   -0.007825419306755    0.206189393997192
125    8.770671515900000    5.839707718100000    2.651663541800000   -0.021893067285419    0.070414125919342   -0.000023481901735
175   11.818968337799999    7.204585032000001    0.855957012500000   -0.089499324560165    0.018862888216972    0.129833713173866
19    0.297262781700000    9.217596871800000    1.000430206500000   -0.122777909040451    0.007542058825493    0.206670626997948
67    0.297523738700000   12.634882115900002    2.651663541800000    0.017780173569918    0.065278775990009    0.000007666647434
91    3.404301960299999   10.239431477000000    2.651663541800000    0.017831556499004   -0.065575815737247    0.000009384863915
123    2.557114749400000   12.375225508500000    2.651663541800000   -0.022882051765919    0.070359639823437    0.000054352069128
139    2.498632815300000    9.134210391500000    0.855957012500000   -0.093220412731171   -0.022480010986328    0.124613039195538
23    6.510819237499998    9.217596871800000    1.000430206500000   -0.122611470520496    0.008524358272552    0.206728622317314
71    6.511080716399999   12.634882115900002    2.651663541800000    0.017776560038328    0.065418727695942   -0.000011010095477
187    5.663893132700000   10.499088084400002    2.651663541800000   -0.022895397618413   -0.070446386933327   -0.000008333008736
95    9.617859099700000   10.239431477000000    2.651663541800000    0.017804071307182   -0.065348401665688    0.000016055535525
127    8.770671515900000   12.375225508500000    2.651663541800000   -0.022866029292345    0.070289239287376   -0.000054347794503
143    8.712189954599999    9.134210391500000    0.855957012500000   -0.093403689563274   -0.023146003484726    0.124735847115517
191   11.877449899200000   10.499088084400002    2.651663541800000   -0.022879432886839   -0.070088990032673   -0.000051209146477
25    0.297262781700000    2.682078702400000    4.302896728600000   -0.122823625802994    0.008772268891335   -0.207454919815063
57    3.404041227099999    0.585680473800000    4.302896728600000   -0.122519567608833   -0.008607268333435   -0.206748440861702
145    2.498632815300000    2.598692026100000    4.447369986200000   -0.093496970832348   -0.022363305091858   -0.125167146325111
153    3.714923951199999    3.936826339400000    6.159283862799999    0.093563340604305    0.023211099207401    0.124734543263912
29    6.510819237499998    2.682078702400000    4.302896728600000   -0.122636578977108    0.008460745215416   -0.206566825509071
33    5.916293922700000    3.853439467000000    6.303757438599999    0.122628927230835   -0.008580625057220    0.206719890236855
105    5.605411198500000    0.669067150100000    4.447369986200000   -0.093589529395103    0.022915497422218   -0.124751642346382
37   12.129850316399997    3.853439467000000    6.303757438599999    0.122767210006714   -0.008489415049553    0.206713110208511
61    9.617598366399999    0.585680473800000    4.302896728600000   -0.122574657201767   -0.008497014641762   -0.206701084971428
109   11.818968337799999    0.669067150100000    4.447369986200000   -0.093472659587860    0.022961072623730   -0.124689877033234
149    8.712189954599999    2.598692026100000    4.447369986200000   -0.093549385666847   -0.022986263036728   -0.124692574143410
157    9.928480344900001    3.936826339400000    6.159283862799999    0.093124665319920    0.022948123514652    0.124889522790909
49    2.809515539400000    5.949837787100000    6.303757438599999    0.122616097331047    0.008587852120399    0.205998420715332
59    3.404041227099999    7.121198551700000    4.302896728600000   -0.123237609863281   -0.008204758167267   -0.205129235982895
129    0.608145655000000    5.866450914700000    6.159283862799999    0.093006975948811   -0.021598219871521    0.123438708484173
107    5.605411198500000    7.204585032000001    4.447369986200000   -0.093410909175873    0.022969536483288   -0.124961994588375
133    6.821702707300000    5.866450914700000    6.159283862799999    0.093213900923729   -0.023068159818649    0.124817147850990
53    9.023071933099999    5.949837787100000    6.303757438599999    0.122473068535328    0.008448436856270    0.207007318735123
63    9.617598366399999    7.121198551700000    4.302896728600000   -0.122120723128319   -0.007843077182770   -0.206136047840118
111   11.818968337799999    7.204585032000001    4.447369986200000   -0.089545078575611    0.018768444657326   -0.129875391721725
27    0.297262781700000    9.217596871800000    4.302896728600000   -0.122754991054535    0.007616594433784   -0.206663429737091
51    2.809515539400000   12.485355956499999    6.303757438599999    0.122612416744232    0.008541539311409    0.206571832299232
131    0.608145655000000   12.401968705000000    6.159283862799999    0.093428447842598   -0.022861011326313    0.124762281775475
147    2.498632815300000    9.134210391500000    4.447369986200000   -0.093122363090515   -0.022417575120926   -0.124585144221783
155    3.714923951199999   10.472344887900000    6.159283862799999    0.093368202447891    0.022662915289402    0.124549217522144
31    6.510819237499998    9.217596871800000    4.302896728600000   -0.122571595013142    0.008551597595215   -0.206720024347305
35    5.916293922700000   10.388957636400002    6.303757438599999    0.122723221778870   -0.008468434214592    0.206704616546631
135    6.821702707300000   12.401968705000000    6.159283862799999    0.093455977737904   -0.022917844355106    0.124783709645271
39   12.129850316399997   10.388957636400002    6.303757438599999    0.122601114213467   -0.008573904633522    0.206697076559067
55    9.023071933099999   12.485355956499999    6.303757438599999    0.122623473405838    0.008505195379257    0.206615075469017
151    8.712189954599999    9.134210391500000    4.447369986200000   -0.093385964632034   -0.023077696561813   -0.124707408249378
159    9.928480344900001   10.472344887900000    6.159283862799999    0.093318209052086    0.022962145507336    0.124803118407726
73    2.809254619699999    2.831604665700000    7.954990625400001   -0.017847193405032    0.065377905964851    0.000016146805137
97    3.714923951199999    3.936826339400000    9.750697388000001    0.093508504331112    0.022999823093414   -0.124748542904854
113    3.656442017100000    0.695810490500000    7.954990625400001    0.022972580045462   -0.070223264396191    0.000041085295379
177    0.549663671100000    2.571948633400000    7.954990625400001    0.022918155416846    0.070189751684666    0.000117555260658
9    5.916293922700000    3.853439467000000    9.606223812200000    0.122633904218674   -0.008483558893204   -0.206667661666870
81    5.916033189399998    0.436154327500000    7.954990625400001   -0.017841707915068   -0.065399847924709   -0.000018185470253
181    6.763220400299998    2.571948633400000    7.954990625400001    0.022845342755318    0.070322468876839   -0.000033088726923
13   12.129850316399997    3.853439467000000    9.606223812200000    0.122636184096336   -0.008487135171890   -0.206649214029312
77    9.022811199800000    2.831604665700000    7.954990625400001   -0.017800411209464    0.065365135669708    0.000027832109481
85   12.129589583100000    0.436154327500000    7.954990625400001   -0.017803248018026   -0.065374344587326   -0.000029951021133
101    9.928480344900001    3.936826339400000    9.750697388000001    0.093562290072441    0.022969514131546   -0.124772481620312
117    9.869998783600000    0.695810490500000    7.954990625400001    0.022969214245677   -0.070189878344536    0.000021274434403
1    2.809515539400000    5.949837787100000    9.606223812200000    0.122668229043484    0.008403018116951   -0.206575497984886
115    3.656442017100000    7.231328999700000    7.954990625400001    0.022905390709639   -0.070359125733376   -0.000100725796074
161    0.608145655000000    5.866450914700000    9.750697388000001    0.093440495431423   -0.022993147373199   -0.124734520912170
83    5.916033189399998    6.971672392300000    7.954990625400001   -0.017775483429432   -0.065357320010662    0.000102295074612
165    6.821702707300000    5.866450914700000    9.750697388000001    0.093474917113781   -0.022918358445168   -0.124732054769993
5    9.023071933099999    5.949837787100000    9.606223812200000    0.122647367417812    0.008484318852425   -0.206638827919960
87   12.129589583100000    6.971672392300000    7.954990625400001   -0.017834739759564   -0.065391734242439   -0.000086442392785
119    9.869998783600000    7.231328999700000    7.954990625400001    0.022876122966409   -0.070334911346436    0.000052569434047
3    2.809515539400000   12.485355956499999    9.606223812200000    0.122638449072838    0.008497864007950   -0.206621244549751
75    2.809254619699999    9.367123031200000    7.954990625400001   -0.017893686890602    0.065473675727844    0.000018074177206
99    3.714923951199999   10.472344887900000    9.750697388000001    0.093480929732323    0.022871606051922   -0.124724499881268
163    0.608145655000000   12.401968705000000    9.750697388000001    0.093472123146057   -0.022893361747265   -0.124756909906864
179    0.549663671100000    9.107466423800000    7.954990625400001    0.022970914840698    0.070291899144650    0.000060759717599
11    5.916293922700000   10.388957636400002    9.606223812200000    0.122643262147903   -0.008504047989845   -0.206673175096512
167    6.821702707300000   12.401968705000000    9.750697388000001    0.093433976173401   -0.022962518036366   -0.124767184257507
183    6.763220400299998    9.107466423800000    7.954990625400001    0.022871311753988    0.070309296250343    0.000009200302884
7    9.023071933099999   12.485355956499999    9.606223812200000    0.122663289308548    0.008554041385651   -0.206611335277557
15   12.129850316399997   10.388957636400002    9.606223812200000    0.122666254639626   -0.008521929383278   -0.206642121076584
79    9.022811199800000    9.367123031200000    7.954990625400001   -0.017830021679401    0.065405488014221    0.000003984663635
103    9.928480344900001   10.472344887900000    9.750697388000001    0.093467004597187    0.022832386195660   -0.124732166528702
18    0.297262781700000    2.682078702400000   11.607084522199999   -0.122711017727852    0.008550241589546    0.206643819808960
42    3.404041227099999    0.585680473800000   11.607084522199999   -0.122699245810509   -0.008536368608475    0.206708073616028
90    3.404301960299999    3.703913307600000   13.258317709000000    0.017817245796323   -0.065374895930290   -0.000008772647561
138    2.498632815300000    2.598692026100000   11.462611582800001   -0.093441046774387   -0.022913955152035    0.124778717756271
22    6.510819237499998    2.682078702400000   11.607084522199999   -0.122692108154297    0.008458703756332    0.206666976213455
170    5.605411198500000    0.669067150100000   11.462611582800001   -0.093431636691093    0.022972151637077    0.124787941575050
186    5.663893132700000    3.963569536000000   13.258317709000000   -0.022911049425602   -0.070304982364178    0.000027008354664
46    9.617598366399999    0.585680473800000   11.607084522199999   -0.122707054018974   -0.008534371852875    0.206703811883926
94    9.617859099700000    3.703913307600000   13.258317709000000    0.017800576984882   -0.065373077988625    0.000017330283299
142    8.712189954599999    2.598692026100000   11.462611582800001   -0.093474328517914   -0.022955209016800    0.124777846038342
174   11.818968337799999    0.669067150100000   11.462611582800001   -0.093437165021896    0.022896714508533    0.124771013855934
190   11.877449899200000    3.963569536000000   13.258317709000000   -0.022878430783749   -0.070312492549419    0.000018681399524
44    3.404041227099999    7.121198551700000   11.607084522199999   -0.122675418853760   -0.008489474654198    0.206716328859329
66    0.297523738700000    6.099363946500000   13.258317709000000    0.017836622893810    0.065401688218117    0.000005390495062
122    2.557114749400000    5.839707718100000   13.258317709000000   -0.022898899391294    0.070335969328880    0.000035284348996
70    6.511080716399999    6.099363946500000   13.258317709000000    0.017807718366385    0.065414287149906   -0.000002339482307
172    5.605411198500000    7.204585032000001   11.462611582800001   -0.093418046832085    0.022964343428612    0.124775663018227
48    9.617598366399999    7.121198551700000   11.607084522199999   -0.122633509337902   -0.008465737104416    0.206732988357544
126    8.770671515900000    5.839707718100000   13.258317709000000   -0.022860031574965    0.070370942354202    0.000013771001250
176   11.818968337799999    7.204585032000001   11.462611582800001   -0.093528747558594    0.022991023957729    0.124786660075188
20    0.297262781700000    9.217596871800000   11.607084522199999   -0.122632980346680    0.008448168635368    0.206732332706451
68    0.297523738700000   12.634882115900002   13.258317709000000    0.017804451286793    0.065391272306442    0.000007712282240
92    3.404301960299999   10.239431477000000   13.258317709000000    0.017815358936787   -0.065396346151829    0.000000270890837
124    2.557114749400000   12.375225508500000   13.258317709000000   -0.022873703390360    0.070342123508453    0.000034191471059
140    2.498632815300000    9.134210391500000   11.462611582800001   -0.093504004180431   -0.022886484861374    0.124740093946457
24    6.510819237499998    9.217596871800000   11.607084522199999   -0.122637599706650    0.008464485406876    0.206737667322159
72    6.511080716399999   12.634882115900002   13.258317709000000    0.017813406884670    0.065393820405006    0.000017136335373
188    5.663893132700000   10.499088084400002   13.258317709000000   -0.022871030494571   -0.070367448031902    0.000008118338883
96    9.617859099700000   10.239431477000000   13.258317709000000    0.017812805250287   -0.065394669771194    0.000006634276360
128    8.770671515900000   12.375225508500000   13.258317709000000   -0.022863261401653    0.070351511240005    0.000020959880203
144    8.712189954599999    9.134210391500000   11.462611582800001   -0.093488037586212   -0.022954486310482    0.124753668904305
192   11.877449899200000   10.499088084400002   13.258317709000000   -0.022869430482388   -0.070368081331253    0.000010538380593
26    0.297262781700000    2.682078702400000   14.909550895800001   -0.122617505490780    0.008414998650551   -0.206684216856956
58    3.404041227099999    0.585680473800000   14.909550895800001   -0.122636191546917   -0.008450567722321   -0.206722021102905
146    2.498632815300000    2.598692026100000   15.054023835200001   -0.093540459871292   -0.022996872663498   -0.124744258821011
154    3.714923951199999    3.936826339400000   16.765937393600002    0.093496084213257    0.022982373833656    0.124744176864624
30    6.510819237499998    2.682078702400000   14.909550895800001   -0.122606426477432    0.008407592773438   -0.206680849194527
34    5.916293922700000    3.853439467000000   16.910411605800000    0.122651696205139   -0.008449450135231    0.206719130277634
106    5.605411198500000    0.669067150100000   15.054023835200001   -0.093501016497612    0.022991821169853   -0.124748617410660
38   12.129850316399997    3.853439467000000   16.910411605800000    0.122650235891342   -0.008464843034744    0.206767201423645
62    9.617598366399999    0.585680473800000   14.909550895800001   -0.122638583183289   -0.008448049426079   -0.206719160079956
110   11.818968337799999    0.669067150100000   15.054023835200001   -0.093502089381218    0.022986717522144   -0.124741561710835
150    8.712189954599999    2.598692026100000   15.054023835200001   -0.093537889420986   -0.022994846105576   -0.124737985432148
158    9.928480344900001    3.936826339400000   16.765937393600002    0.093521311879158    0.022983796894550    0.124743655323982
50    2.809515539400000    5.949837787100000   16.910411605800000    0.122606694698334    0.008419379591942    0.206652104854584
60    3.404041227099999    7.121198551700000   14.909550895800001   -0.122634887695312   -0.008446902036667   -0.206733852624893
130    0.608145655000000    5.866450914700000   16.765937393600002    0.093517862260342   -0.022985696792603    0.124744012951851
108    5.605411198500000    7.204585032000001   15.054023835200001   -0.093496888875961    0.022973693907261   -0.124737165868282
134    6.821702707300000    5.866450914700000   16.765937393600002    0.093498475849628   -0.022953279316425    0.124740719795227
54    9.023071933099999    5.949837787100000   16.910411605800000    0.122634418308735    0.008442640304565    0.206694006919861
64    9.617598366399999    7.121198551700000   14.909550895800001   -0.122635692358017   -0.008449450135231   -0.206733494997025
112   11.818968337799999    7.204585032000001   15.054023835200001   -0.093536570668221    0.023003809154034   -0.124759986996651
28    0.297262781700000    9.217596871800000   14.909550895800001   -0.122637927532196    0.008440032601357   -0.206730246543884
52    2.809515539400000   12.485355956499999   16.910411605800000    0.122633442282677    0.008450642228127    0.206734925508499
132    0.608145655000000   12.401968705000000   16.765937393600002    0.093505449593067   -0.022980883717537    0.124748893082142
148    2.498632815300000    9.134210391500000   15.054023835200001   -0.093506857752800   -0.022971987724304   -0.124745801091194
156    3.714923951199999   10.472344887900000   16.765937393600002    0.093497358262539    0.022961407899857    0.124751694500446
32    6.510819237499998    9.217596871800000   14.909550895800001   -0.122638612985611    0.008446365594864   -0.206737428903580
36    5.916293922700000   10.388957636400002   16.910411605800000    0.122634455561638   -0.008445501327515    0.206729084253311
136    6.821702707300000   12.401968705000000   16.765937393600002    0.093509376049042   -0.022972859442234    0.124752454459667
40   12.129850316399997   10.388957636400002   16.910411605800000    0.122642025351524   -0.008452475070953    0.206742033362389
56    9.023071933099999   12.485355956499999   16.910411605800000    0.122638247907162    0.008453845977783    0.206736594438553
152    8.712189954599999    9.134210391500000   15.054023835200001   -0.093499459326267   -0.022976577281952   -0.124737545847893
160    9.928480344900001   10.472344887900000   16.765937393600002    0.093510158360004    0.022969149053097    0.124752119183540
74    2.809254619699999    2.831604665700000   18.561644792599999   -0.017865160480142    0.065373696386814   -0.000025562942028
98    3.714923951199999    3.936826339400000   20.357352191600000    0.093563042581081    0.023230254650116   -0.124768450856209
114    3.656442017100000    0.695810490500000   18.561644792599999    0.022874753922224   -0.070346824824810   -0.000028963666409
178    0.549663671100000    2.571948633400000   18.561644792599999    0.022914132103324    0.070257730782032   -0.000150084961206
10    5.916293922700000    3.853439467000000   20.212877979400002    0.122643128037453   -0.008523449301720   -0.206751272082329
82    5.916033189399998    0.436154327500000   18.561644792599999   -0.017809543758631   -0.065399192273617    0.000002390705049
182    6.763220400299998    2.571948633400000   18.561644792599999    0.022847188636661    0.070361986756325    0.000010158168152
14   12.129850316399997    3.853439467000000   20.212877979400002    0.122731663286686   -0.008435770869255   -0.206766426563263
78    9.022811199800000    2.831604665700000   18.561644792599999   -0.017823489382863    0.065363779664040   -0.000045915134251
86   12.129589583100000    0.436154327500000   18.561644792599999   -0.017797762528062   -0.065380111336708    0.000026522298867
102    9.928480344900001    3.936826339400000   20.357352191600000    0.093143559992313    0.022989287972450   -0.124892085790634
118    9.869998783600000    0.695810490500000   18.561644792599999    0.022867426276207   -0.070364087820053   -0.000012038275599
2    2.809515539400000    5.949837787100000   20.212877979400002    0.122569844126701    0.008577555418015   -0.206099927425385
116    3.656442017100000    7.231328999700000   18.561644792599999    0.022847944870591   -0.070417366921902    0.000090276618721
162    0.608145655000000    5.866450914700000   20.357352191600000    0.093017011880875   -0.021597065031528   -0.123421624302864
84    5.916033189399998    6.971672392300000   18.561644792599999   -0.017771348357201   -0.065365791320801   -0.000112408568384
166    6.821702707300000    5.866450914700000   20.357352191600000    0.093307666480541   -0.023119680583477   -0.124864429235458
6    9.023071933099999    5.949837787100000   20.212877979400002    0.122377127408981    0.008368536829948   -0.207079648971558
88   12.129589583100000    6.971672392300000   18.561644792599999   -0.017793664708734   -0.065378211438656    0.000078005577961
120    9.869998783600000    7.231328999700000   18.561644792599999    0.022820569574833   -0.070376276969910   -0.000071278773248
4    2.809515539400000   12.485355956499999   20.212877979400002    0.122598625719547    0.008478939533234   -0.206675082445145
76    2.809254619699999    9.367123031200000   18.561644792599999   -0.017867023125291    0.065448842942715   -0.000007726252079
100    3.714923951199999   10.472344887900000   20.357352191600000    0.093420706689358    0.022798448801041   -0.124629050493240
164    0.608145655000000   12.401968705000000   20.357352191600000    0.093504190444946   -0.022910155355930   -0.124789968132973
180    0.549663671100000    9.107466423800000   18.561644792599999    0.022886142134666    0.070383623242378   -0.000083878869191
12    5.916293922700000   10.388957636400002   20.212877979400002    0.122686132788658   -0.008411034941673   -0.206763774156570
168    6.821702707300000   12.401968705000000   20.357352191600000    0.093499347567558   -0.022984936833382   -0.124790981411934
184    6.763220400299998    9.107466423800000   18.561644792599999    0.022833250463009    0.070374369621277   -0.000006121816114
8    9.023071933099999   12.485355956499999   20.212877979400002    0.122649267315865    0.008481889963150   -0.206730782985687
16   12.129850316399997   10.388957636400002   20.212877979400002    0.122611112892628   -0.008585080504417   -0.206764429807663
80    9.022811199800000    9.367123031200000   18.561644792599999   -0.017810299992561    0.065407589077950   -0.000011698808521
104    9.928480344900001   10.472344887900000   20.357352191600000    0.093351796269417    0.023096673190594   -0.124875500798225
