ITEM: TIMESTEP
0
ITEM: NUMBER OF ATOMS
192
ITEM: BOX BOUNDS xy xz yz pp pp pp
0.0000000000000000e+00 1.2427113533000000e+01 0.0000000000000000e+00
0.0000000000000000e+00 1.3071036338800001e+01 0.0000000000000000e+00
0.0000000000000000e+00 2.1213308334400001e+01 0.0000000000000000e+00
ITEM: ATOMS id xu yu zu fx fy fz
17    0.297262781700000    2.682078702400000    1.000430206500000   -0.122492387890816    0.007864966988564    0.204599887132645
41    3.404041227099999    0.585680473800000    1.000430206500000   -0.122622847557068   -0.008564546704292    0.206689536571503
89    3.404301960299999    3.703913307600000    2.651663541800000    0.018315117806196   -0.066183567047119    0.000006761169061
137    2.498632815300000    2.598692026100000    0.855957012500000   -0.093647025525570   -0.022539854049683    0.125132277607918
21    6.510819237499998    2.682078702400000    1.000430206500000   -0.122721634805202    0.008524611592293    0.206654429435730
169    5.605411198500000    0.669067150100000    0.855957012500000   -0.093515627086163    0.022926814854145    0.124751500785351
185    5.663893132700000    3.963569536000000    2.651663541800000   -0.022980820387602   -0.070311345160007    0.000030414201319
45    9.617598366399999    0.585680473800000    1.000430206500000   -0.122755020856857   -0.008524447679520    0.206666409969330
93    9.617859099700000    3.703913307600000    2.651663541800000    0.014893345534801   -0.066231183707714    0.000000545289367
141    8.712189954599999    2.598692026100000    0.855957012500000   -0.093282878398895   -0.022971510887146    0.125099986791611
173   11.818968337799999    0.669067150100000    0.855957012500000   -0.093563742935658    0.022899001836777    0.124831765890121
189   11.877449899200000    3.963569536000000    2.651663541800000   -0.029397554695606   -0.085672400891781   -0.000020277322619
43    3.404041227099999    7.121198551700000    1.000430206500000   -0.122532449662685   -0.008259758353233    0.206373691558838
65    0.297523738700000    6.089363946500000    2.651663541800000    0.015787810087204    0.090643189847469   -0.000003772787750
121    2.557114749400000    5.839707718100000    2.651663541800000   -0.021371897310019    0.069832660257816   -0.000019906088710
69    6.511080716399999    6.099363946500000    2.651663541800000    0.017752755433321    0.065367080271244    0.000004817731678
171    5.605411198500000    7.204585032000001    0.855957012500000   -0.093728862702847    0.023106910288334    0.124872446060181
47    9.617598366399999    7.121198551700000    1.000430206500000   -0.121568188071251   -0.008165270090103    0.206643238663673
125    8.770671515900000    5.839707718100000    2.651663541800000   -0.022915078327060    0.069902822375298   -0.000024061184376
175   11.818968337799999    7.204585032000001    0.855957012500000   -0.088296405971050    0.018093407154083    0.130934804677963
19    0.297262781700000    9.217596871800000    1.000430206500000   -0.122713401913643    0.009016394615173    0.205564588308334
67    0.297523738700000   12.634882115900002    2.651663541800000    0.017939975485206    0.065561354160309    0.000007641967386
91    3.404301960299999   10.239431477000000    2.651663541800000    0.017897387966514   -0.065288081765175    0.000009682654309
123    2.557114749400000   12.375225508500000    2.651663541800000   -0.022823255509138    0.070446230471134    0.000054013038607
139    2.498632815300000    9.134210391500000    0.855957012500000   -0.094029031693935   -0.023352712392807    0.124944262206554
23    6.510819237499998    9.217596871800000    1.000430206500000   -0.122690588235855    0.008490189909935    0.206743121147156
71    6.511080716399999   12.634882115900002    2.651663541800000    0.017784727737308    0.065410643815994   -0.000010931864381
187    5.663893132700000   10.499088084400002    2.651663541800000   -0.022916223853827   -0.070424340665340   -0.000008251052350
95    9.617859099700000   10.239431477000000    2.651663541800000    0.017656300216913   -0.065273612737656    0.000015965197235
127    8.770671515900000   12.375225508500000    2.651663541800000   -0.022879116237164    0.070317089557648   -0.000054602511227
143    8.712189954599999    9.134210391500000    0.855957012500000   -0.093557566404343   -0.022880040109158    0.124662667512894
191   11.877449899200000   10.499088084400002    2.651663541800000   -0.022749513387680   -0.070321626961231   -0.000050796337746
25    0.297262781700000    2.682078702400000    4.302896728600000   -0.122565113008022    0.007848471403122   -0.204567432403564
57    3.404041227099999    0.585680473800000    4.302896728600000   -0.122547417879105   -0.008630737662315   -0.206748336553574
145    2.498632815300000    2.598692026100000    4.447369986200000   -0.093579053878784   -0.022506527602673   -0.125128164887428
153    3.714923951199999    3.936826339400000    6.159283862799999    0.093544930219650    0.022826306521893    0.124715603888035
29    6.510819237499998    2.682078702400000    4.302896728600000   -0.122714623808861    0.008524298667908   -0.206682860851288
33    5.916293922700000    3.853439467000000    6.303757438599999    0.122558325529099   -0.008567482233047    0.206705331802368
105    5.605411198500000    0.669067150100000    4.447369986200000   -0.093604281544685    0.022978655993938   -0.124771609902382
37   12.129850316399997    3.853439467000000    6.303757438599999    0.122856266796589   -0.008757129311562    0.206089645624161
61    9.617598366399999    0.585680473800000    4.302896728600000   -0.122656486928463   -0.008523955941200   -0.206637308001518
109   11.818968337799999    0.669067150100000    4.447369986200000   -0.093569844961166    0.022921189665794   -0.124851845204830
149    8.712189954599999    2.598692026100000    4.447369986200000   -0.093354336917400   -0.022936716675758   -0.125134080648422
157    9.928480344900001    3.936826339400000    6.159283862799999    0.093811154365540    0.022823229432106    0.124676279723644
49    2.809515539400000    5.949837787100000    6.303757438599999    0.123070918023586    0.008510157465935    0.206499725580215
59    3.404041227099999    7.121198551700000    4.302896728600000   -0.122495368123055   -0.008287876844406   -0.206330895423889
129    0.608145655000000    5.866450914700000    6.159283862799999    0.092293895781040   -0.021649606525898    0.123315423727036
107    5.605411198500000    7.204585032000001    4.447369986200000   -0.093770429491997    0.023047208786011   -0.124873831868172
133    6.821702707300000    5.866450914700000    6.159283862799999    0.093465186655521   -0.023079648613930    0.124958448112011
53    9.023071933099999    5.949837787100000    6.303757438599999    0.122234821319580    0.008220419287682    0.207241028547287
63    9.617598366399999    7.121198551700000    4.302896728600000   -0.121602632105350   -0.008183151483536   -0.206588879227638
111   11.818968337799999    7.204585032000001    4.447369986200000   -0.088341288268566    0.018000185489655   -0.130976974964142
27    0.297262781700000    9.217596871800000    4.302896728600000   -0.122689872980118    0.009090468287468   -0.205558300018311
51    2.809515539400000   12.485355956499999    6.303757438599999    0.122646868228912    0.008490800857544    0.206626474857330
131    0.608145655000000   12.401968705000000    6.159283862799999    0.093546263873577   -0.022668085992336    0.124801471829414
147    2.498632815300000    9.134210391500000    4.447369986200000   -0.093932151794434   -0.023291587829590   -0.124916955828667
155    3.714923951199999   10.472344887900000    6.159283862799999    0.093727990984917    0.023130245506763    0.125055074691772
31    6.510819237499998    9.217596871800000    4.302896728600000   -0.122650414705276    0.008517771959305   -0.206735104322433
35    5.916293922700000   10.388957636400002    6.303757438599999    0.122620716691017   -0.008518189191818    0.206653505563736
135    6.821702707300000   12.401968705000000    6.159283862799999    0.093469746410847   -0.022925242781639    0.124801494181156
39   12.129850316399997   10.388957636400002    6.303757438599999    0.122838497161865   -0.008975401520729    0.206146270036697
55    9.023071933099999   12.485355956499999    6.303757438599999    0.122622452676296    0.008478075265884    0.206608355045319
151    8.712189954599999    9.134210391500000    4.447369986200000   -0.093540385365486   -0.022811815142632   -0.124634407460690
159    9.928480344900001   10.472344887900000    6.159283862799999    0.093027673661709    0.022931128740311    0.124751098453999
73    2.809254619699999    2.831604665700000    7.954990625400001   -0.017730774357915    0.065414577722549   -0.000004266388714
97    3.714923951199999    3.936826339400000    9.750697388000001    0.093508444726467    0.023004122078419   -0.124753981828690
113    3.656442017100000    0.695810490500000    7.954990625400001    0.022964578121901   -0.070238731801510    0.000017213635147
177    0.549663671100000    2.571948633400000    7.954990625400001    0.022853609174490    0.070262320339680   -0.000080144498497
9    5.916293922700000    3.853439467000000    9.606223812200000    0.122640475630760   -0.008481040596962   -0.206664621829987
81    5.916033189399998    0.436154327500000    7.954990625400001   -0.017838751897216   -0.065400749444962   -0.000015418045223
181    6.763220400299998    2.571948633400000    7.954990625400001    0.022876992821693    0.070316016674042   -0.000017471844330
13   12.129850316399997    3.853439467000000    9.606223812200000    0.122590988874435   -0.008439019322395   -0.206558406352997
77    9.022811199800000    2.831604665700000    7.954990625400001   -0.017771400511265    0.065398737788200   -0.000012749340385
85   12.129589583100000    0.436154327500000    7.954990625400001   -0.017835490405560   -0.065478965640068    0.000033289514249
101    9.928480344900001    3.936826339400000    9.750697388000001    0.093555085361004    0.022963181138039   -0.124762028455734
117    9.869998783600000    0.695810490500000    7.954990625400001    0.022956609725952   -0.070198476314545    0.000029506161809
1    2.809515539400000    5.949837787100000    9.606223812200000    0.122684217989445    0.008425727486610   -0.206639066338539
115    3.656442017100000    7.231328999700000    7.954990625400001    0.022992376238108   -0.070235557854176    0.000116716604680
161    0.608145655000000    5.866450914700000    9.750697388000001    0.093441896140575   -0.022994898259640   -0.124737083911896
83    5.916033189399998    6.971672392300000    7.954990625400001   -0.017842631787062   -0.065352648496628    0.000072498340160
165    6.821702707300000    5.866450914700000    9.750697388000001    0.093480698764324   -0.022920496761799   -0.124735943973064
5    9.023071933099999    5.949837787100000    9.606223812200000    0.122644484043121    0.008467450737953   -0.206661775708199
87   12.129589583100000    6.971672392300000    7.954990625400001   -0.017863638699055   -0.065310135483742    0.000016137204511
119    9.869998783600000    7.231328999700000    7.954990625400001    0.022813662886620   -0.070385813713074   -0.000042840838432
3    2.809515539400000   12.485355956499999    9.606223812200000    0.122637830674648    0.008498758077621   -0.206624448299408
75    2.809254619699999    9.367123031200000    7.954990625400001   -0.017855003476143    0.065431490540504    0.000032521318644
99    3.714923951199999   10.472344887900000    9.750697388000001    0.093487769365311    0.022879250347614   -0.124722287058830
163    0.608145655000000   12.401968705000000    9.750697388000001    0.093465000391006   -0.022881858050823   -0.124754674732685
179    0.549663671100000    9.107466423800000    7.954990625400001    0.023018028587103    0.070214815437794    0.000131153035909
11    5.916293922700000   10.388957636400002    9.606223812200000    0.122644491493702   -0.008507519960403   -0.206675022840500
167    6.821702707300000   12.401968705000000    9.750697388000001    0.093432977795601   -0.022962614893913   -0.124766938388348
183    6.763220400299998    9.107466423800000    7.954990625400001    0.022879406809807    0.070313140749931    0.000014912802726
7    9.023071933099999   12.485355956499999    9.606223812200000    0.122658580541611    0.008551254868507   -0.206605583429337
15   12.129850316399997   10.388957636400002    9.606223812200000    0.122667856514454   -0.008517786860466   -0.206645250320435
79    9.022811199800000    9.367123031200000    7.954990625400001   -0.017844466492534    0.065395809710026    0.000018245540559
103    9.928480344900001   10.472344887900000    9.750697388000001    0.093461677432060    0.022827573120594   -0.124726533889771
18    0.297262781700000    2.682078702400000   11.607084522199999   -0.122710041701794    0.008551761507988    0.206646770238876
42    3.404041227099999    0.585680473800000   11.607084522199999   -0.122698873281479   -0.008534535765648    0.206709980964661
90    3.404301960299999    3.703913307600000   13.258317709000000    0.017816815525293   -0.065375193953514   -0.000008814091416
138    2.498632815300000    2.598692026100000   11.462611582800001   -0.093438290059566   -0.022917561233044    0.124779030680656
22    6.510819237499998    2.682078702400000   11.607084522199999   -0.122691780328751    0.008458495140076    0.206666857004166
170    5.605411198500000    0.669067150100000   11.462611582800001   -0.093432076275349    0.022971726953983    0.124786823987961
186    5.663893132700000    3.963569536000000   13.258317709000000   -0.022910378873348   -0.070304624736309    0.000026979483664
46    9.617598366399999    0.585680473800000   11.607084522199999   -0.122707322239876   -0.008532628417015    0.206702888011932
94    9.617859099700000    3.703913307600000   13.258317709000000    0.017800167202950   -0.065373174846172    0.000017109792680
142    8.712189954599999    2.598692026100000   11.462611582800001   -0.093476913869381   -0.022958181798458    0.124781623482704
174   11.818968337799999    0.669067150100000   11.462611582800001   -0.093437992036343    0.022890985012054    0.124767825007439
190   11.877449899200000    3.963569536000000   13.258317709000000   -0.022881414741278   -0.070309609174728    0.000019077211618
44    3.404041227099999    7.121198551700000   11.607084522199999   -0.122674837708473   -0.008487910032272    0.206711024045944
66    0.297523738700000    6.099363946500000   13.258317709000000    0.017836745828390    0.065401628613472    0.000005420297384
122    2.557114749400000    5.839707718100000   13.258317709000000   -0.022897597402334    0.070339038968086    0.000035267119529
70    6.511080716399999    6.099363946500000   13.258317709000000    0.017807729542255    0.065414026379585   -0.000002318993211
172    5.605411198500000    7.204585032000001   11.462611582800001   -0.093419454991817    0.022964231669903    0.124778419733047
48    9.617598366399999    7.121198551700000   11.607084522199999   -0.122634924948215   -0.008465528488159    0.206737205386162
126    8.770671515900000    5.839707718100000   13.258317709000000   -0.022860601544380    0.070369638502598    0.000013886485249
176   11.818968337799999    7.204585032000001   11.462611582800001   -0.093524888157845    0.022996492683887    0.124791756272316
20    0.297262781700000    9.217596871800000   11.607084522199999   -0.122632548213005    0.008450150489807    0.206726402044296
68    0.297523738700000   12.634882115900002   13.258317709000000    0.017804633826017    0.065391130745411    0.000007728580385
92    3.404301960299999   10.239431477000000   13.258317709000000    0.017815323546529   -0.065396368503571    0.000000180785349
124    2.557114749400000   12.375225508500000   13.258317709000000   -0.022873098030686    0.070342138409615    0.000034137920011
140    2.498632815300000    9.134210391500000   11.462611582800001   -0.093505732715130   -0.022888682782650    0.124742977321148
24    6.510819237499998    9.217596871800000   11.607084522199999   -0.122637167572975    0.008464217185974    0.206736952066422
72    6.511080716399999   12.634882115900002   13.258317709000000    0.017813479527831    0.065393820405006    0.000017143785954
188    5.663893132700000   10.499088084400002   13.258317709000000   -0.022870898246765   -0.070367783308029    0.000007805880159
96    9.617859099700000   10.239431477000000   13.258317709000000    0.017812792211771   -0.065394610166550    0.000006515299901
128    8.770671515900000   12.375225508500000   13.258317709000000   -0.022863060235977    0.070352062582970    0.000021157313313
144    8.712189954599999    9.134210391500000   11.462611582800001   -0.093488112092018   -0.022950775921345    0.124754190444946
192   11.877449899200000   10.499088084400002   13.258317709000000   -0.022868558764458   -0.070368990302086    0.000010742805898
26    0.297262781700000    2.682078702400000   14.909550895800001   -0.122616186738014    0.008416116237640   -0.206687778234482
58    3.404041227099999    0.585680473800000   14.909550895800001   -0.122635960578918   -0.008448749780655   -0.206723526120186
146    2.498632815300000    2.598692026100000   15.054023835200001   -0.093538373708725   -0.023000948131084   -0.124745026230812
154    3.714923951199999    3.936826339400000   16.765937393600002    0.093495935201645    0.022986844182014    0.124750092625618
30    6.510819237499998    2.682078702400000   14.909550895800001   -0.122605979442596    0.008407294750214   -0.206680923700333
34    5.916293922700000    3.853439467000000   16.910411605800000    0.122658051550388   -0.008447617292404    0.206715703010559
106    5.605411198500000    0.669067150100000   15.054023835200001   -0.093501724302769    0.022991701960564   -0.124747678637505
38   12.129850316399997    3.853439467000000   16.910411605800000    0.122605055570602   -0.008416324853897    0.206676825881004
62    9.617598366399999    0.585680473800000   14.909550895800001   -0.122638724744320   -0.008446499705315   -0.206718161702156
110   11.818968337799999    0.669067150100000   15.054023835200001   -0.093503057956696    0.022981174290180   -0.124738357961178
150    8.712189954599999    2.598692026100000   15.054023835200001   -0.093540921807289   -0.022998459637165   -0.124741971492767
158    9.928480344900001    3.936826339400000   16.765937393600002    0.093514785170555    0.022977717220783    0.124733343720436
50    2.809515539400000    5.949837787100000   16.910411605800000    0.122622609138489    0.008442044258118    0.206716135144234
60    3.404041227099999    7.121198551700000   14.909550895800001   -0.122634239494801   -0.008445054292679   -0.206729084253311
130    0.608145655000000    5.866450914700000   16.765937393600002    0.093518964946270   -0.022987984120846    0.124746412038803
108    5.605411198500000    7.204585032000001   15.054023835200001   -0.093498416244984    0.022973239421844   -0.124740153551102
134    6.821702707300000    5.866450914700000   16.765937393600002    0.093504488468170   -0.022954821586609    0.124744720757008
54    9.023071933099999    5.949837787100000   16.910411605800000    0.122631952166557    0.008426159620285    0.206716671586037
64    9.617598366399999    7.121198551700000   14.909550895800001   -0.122636981308460   -0.008449152112007   -0.206737846136093
112   11.818968337799999    7.204585032000001   15.054023835200001   -0.093532629311085    0.023009225726128   -0.124764934182167
28    0.297262781700000    9.217596871800000   14.909550895800001   -0.122637286782265    0.008441761136055   -0.206724613904953
52    2.809515539400000   12.485355956499999   16.910411605800000    0.122633002698421    0.008452191948891    0.206737965345383
132    0.608145655000000   12.401968705000000   16.765937393600002    0.093498378992081   -0.022968851029873    0.124746337532997
148    2.498632815300000    9.134210391500000   15.054023835200001   -0.093508742749691   -0.022974111139774   -0.124748624861240
156    3.714923951199999   10.472344887900000   16.765937393600002    0.093504726886749    0.022968873381615    0.124749638140202
32    6.510819237499998    9.217596871800000   14.909550895800001   -0.122637867927551    0.008446574211121   -0.206736117601395
36    5.916293922700000   10.388957636400002   16.910411605800000    0.122635856270790   -0.008449018001556    0.206731021404266
136    6.821702707300000   12.401968705000000   16.765937393600002    0.093508116900921   -0.022973448038101    0.124752461910248
40   12.129850316399997   10.388957636400002   16.910411605800000    0.122643239796162   -0.008448243141174    0.206744983792305
56    9.023071933099999   12.485355956499999   16.910411605800000    0.122633859515190    0.008451074361801    0.206730619072914
152    8.712189954599999    9.134210391500000   15.054023835200001   -0.093499645590782   -0.022973217070103   -0.124738112092018
160    9.928480344900001   10.472344887900000   16.765937393600002    0.093504510819912    0.022964797914028    0.124746792018414
74    2.809254619699999    2.831604665700000   18.561644792599999   -0.017748765647411    0.065410397946835   -0.000005157664418
98    3.714923951199999    3.936826339400000   20.357352191600000    0.093543872237206    0.022845417261124   -0.124749302864075
114    3.656442017100000    0.695810490500000   18.561644792599999    0.022866785526276   -0.070362135767937   -0.000005597481504
178    0.549663671100000    2.571948633400000   18.561644792599999    0.022849608212709    0.070330597460270    0.000047492329031
10    5.916293922700000    3.853439467000000   20.212877979400002    0.122573316097260   -0.008510634303093   -0.206736236810684
82    5.916033189399998    0.436154327500000   18.561644792599999   -0.017806634306908   -0.065400108695030   -0.000000542029738
182    6.763220400299998    2.571948633400000   18.561644792599999    0.022879056632519    0.070355072617531   -0.000005351612344
14   12.129850316399997    3.853439467000000   20.212877979400002    0.122820481657982   -0.008703678846359   -0.206142857670784
78    9.022811199800000    2.831604665700000   18.561644792599999   -0.017794644460082    0.065396979451180   -0.000005180481821
86   12.129589583100000    0.436154327500000   18.561644792599999   -0.017829751595855   -0.065485000610352   -0.000036415549403
102    9.928480344900001    3.936826339400000   20.357352191600000    0.093830555677414    0.022863917052746   -0.124678462743759
118    9.869998783600000    0.695810490500000   18.561644792599999    0.022854391485453   -0.070372775197029   -0.000019779428840
2    2.809515539400000    5.949837787100000   20.212877979400002    0.123024530708790    0.008499667048454   -0.206601500511169
116    3.656442017100000    7.231328999700000   18.561644792599999    0.022934895008802   -0.070293962955475   -0.000126995815663
162    0.608145655000000    5.866450914700000   20.357352191600000    0.092303812503815   -0.021648034453392   -0.123298063874245
84    5.916033189399998    6.971672392300000   18.561644792599999   -0.017838720232248   -0.065361276268959   -0.000082322185335
166    6.821702707300000    5.866450914700000   20.357352191600000    0.093559309840202   -0.023130983114243   -0.125005990266800
6    9.023071933099999    5.949837787100000   20.212877979400002    0.122138977050781    0.008140996098518   -0.207313597202301
88   12.129589583100000    6.971672392300000   18.561644792599999   -0.017822997644544   -0.065296411514282   -0.000024554454285
120    9.869998783600000    7.231328999700000   18.561644792599999    0.022758288308978   -0.070427261292934    0.000024198554456
4    2.809515539400000   12.485355956499999   20.212877979400002    0.122633561491966    0.008427992463112   -0.206729203462601
76    2.809254619699999    9.367123031200000   18.561644792599999   -0.017828399315476    0.065406829118729   -0.000022389460355
100    3.714923951199999   10.472344887900000   20.357352191600000    0.093780495226383    0.023265480995178   -0.125134170055389
164    0.608145655000000   12.401968705000000   20.357352191600000    0.093622222542763   -0.022716686129570   -0.124829567968845
180    0.549663671100000    9.107466423800000   18.561644792599999    0.022933691740036    0.070305950939655   -0.000153924105689
12    5.916293922700000   10.388957636400002   20.212877979400002    0.122583091259003   -0.008460372686386   -0.206712633371353
168    6.821702707300000   12.401968705000000   20.357352191600000    0.093513622879982   -0.022992320358753   -0.124808773398399
184    6.763220400299998    9.107466423800000   18.561644792599999    0.022841265425086    0.070378310978413   -0.000012429896742
8    9.023071933099999   12.485355956499999   20.212877979400002    0.122648097574711    0.008455157279968   -0.206723898649216
16   12.129850316399997   10.388957636400002   20.212877979400002    0.122848629951477   -0.008987113833427   -0.206213384866714
80    9.022811199800000    9.367123031200000   18.561644792599999   -0.017824660986662    0.065397880971432   -0.000025955960155
104    9.928480344900001   10.472344887900000   20.357352191600000    0.093060284852982    0.023065507411957   -0.124822922050953
