ITEM: TIMESTEP
0
ITEM: NUMBER OF ATOMS
192
ITEM: BOX BOUNDS xy xz yz pp pp pp
0.0000000000000000e+00 1.2427113533000000e+01 0.0000000000000000e+00
0.0000000000000000e+00 1.3071036338800001e+01 0.0000000000000000e+00
0.0000000000000000e+00 2.1213308334400001e+01 0.0000000000000000e+00
ITEM: ATOMS id xu yu zu fx fy fz
17    0.297262781700000    2.682078702400000    1.000430206500000   -0.122657023370266    0.008530274033546    0.206727951765060
41    3.404041227099999    0.585680473800000    1.000430206500000   -0.122632220387459   -0.008479803800583    0.206754356622696
89    3.404301960299999    3.703913307600000    2.651663541800000    0.017900768667459   -0.065237790346146   -0.000108169391751
137    2.498632815300000    2.598692026100000    0.855957012500000   -0.093468837440014   -0.023096211254597    0.124835401773453
21    6.510819237499998    2.682078702400000    1.000430206500000   -0.122731722891331    0.008554130792618    0.206688687205315
169    5.605411198500000    0.669067150100000    0.855957012500000   -0.093661412596703    0.022916808724403    0.124783113598824
185    5.663893132700000    3.963569536000000    2.651663541800000   -0.022847462445498   -0.070393115282059    0.000169663224369
45    9.617598366399999    0.585680473800000    1.000430206500000   -0.122689120471478   -0.008513495326042    0.206704288721085
93    9.617859099700000    3.703913307600000    2.651663541800000    0.017839305102825   -0.065401099622250    0.000003003282472
141    8.712189954599999    2.598692026100000    0.855957012500000   -0.093407727777958   -0.022946879267693    0.124726131558418
173   11.818968337799999    0.669067150100000    0.855957012500000   -0.093500413000584    0.022923558950424    0.124715864658356
189   11.877449899200000    3.963569536000000    2.651663541800000   -0.022804316133261   -0.070454925298691    0.000104434220702
43    3.404041227099999    7.121198551700000    1.000430206500000   -0.122673243284225   -0.008509978652000    0.206680178642273
65    0.297523738700000    6.099363946500000    2.651663541800000    0.017861614003778    0.065395206212997   -0.000010924413800
121    2.557114749400000    5.839707718100000    2.651663541800000   -0.022878460586071    0.070304967463017    0.000070434994996
69    6.511080716399999    6.099363946500000    2.651663541800000    0.017808824777603    0.065366446971893    0.000007451511919
171    5.605411198500000    7.204585032000001    0.855957012500000   -0.093430228531361    0.023009195923805    0.124748408794403
47    9.617598366399999    7.121198551700000    1.000430206500000   -0.122599683701992   -0.008544147014618    0.206690847873688
125    8.770671515900000    5.839707718100000    2.651663541800000   -0.022901050746441    0.070328608155251   -0.000016744248569
175   11.818968337799999    7.204585032000001    0.855957012500000   -0.093536242842674    0.022952578961849    0.124709330499172
19    0.297262781700000    9.217596871800000    1.000430206500000   -0.122665137052536    0.008459463715553    0.206650555133820
67    0.297523738700000   12.634882115900002    2.651663541800000    0.017732517793775    0.065286144614220   -0.000161983072758
91    3.404301960299999   10.239431477000000    2.651663541800000    0.017983449622989   -0.065460279583931   -0.000165194869624
123    2.557114749400000   12.375225508500000    2.651663541800000   -0.023966362699866    0.068928860127926   -0.004287628456950
139    2.498632815300000    9.134210391500000    0.855957012500000   -0.093480288982391   -0.022903785109520    0.124742947518826
23    6.510819237499998    9.217596871800000    1.000430206500000   -0.122752889990807    0.008477792143822    0.206711947917938
71    6.511080716399999   12.634882115900002    2.651663541800000    0.017816122621298    0.065484881401062    0.000089735724032
187    5.663893132700000   10.499088084400002    2.651663541800000   -0.022987747564912   -0.070414900779724    0.000133561436087
95    9.617859099700000   10.239431477000000    2.651663541800000    0.017819020897150   -0.065382786095142    0.000009989598766
127    8.770671515900000   12.375225508500000    2.651663541800000   -0.022839628160000    0.070320092141628    0.000006037764251
143    8.712189954599999    9.134210391500000    0.855957012500000   -0.093463763594627   -0.022911816835403    0.124739818274975
191   11.877449899200000   10.499088084400002    2.651663541800000   -0.022906061261892   -0.070298321545124    0.000076578791777
25    0.297262781700000    2.682078702400000    4.302896728600000   -0.123246639966965    0.008868664503098   -0.206796810030937
57    3.404041227099999    0.585680473800000    4.302896728600000   -0.123332023620605   -0.009469538927078   -0.208592727780342
145    2.498632815300000    2.598692026100000    4.447369986200000   -0.094688504934311   -0.019349366426468   -0.125325456261635
153    3.714923951199999    3.936826339400000    6.159283862799999    0.093419566750526    0.020702928304672    0.125144928693771
29    6.510819237499998    2.682078702400000    4.302896728600000   -0.122394770383835    0.008935570716858   -0.206813946366310
33    5.916293922700000    3.853439467000000    6.303757438599999    0.123154357075691   -0.008350104093552    0.206773132085800
105    5.605411198500000    0.669067150100000    4.447369986200000   -0.090239614248276    0.023107662796974   -0.124793335795403
37   12.129850316399997    3.853439467000000    6.303757438599999    0.122721821069717   -0.008587166666985    0.206556022167206
61    9.617598366399999    0.585680473800000    4.302896728600000   -0.122722588479519   -0.008530840277672   -0.206624120473862
109   11.818968337799999    0.669067150100000    4.447369986200000   -0.093175232410431    0.023075602948666   -0.124582231044769
149    8.712189954599999    2.598692026100000    4.447369986200000   -0.093593880534172   -0.022962063550949   -0.124776810407639
157    9.928480344900001    3.936826339400000    6.159283862799999    0.093476541340351    0.022907555103302    0.124764963984489
49    2.809515539400000    5.949837787100000    6.303757438599999    0.122511841356754    0.008961856365204    0.206668823957443
59    3.404041227099999    7.121198551700000    4.302896728600000   -0.122604683041573   -0.008572563529015   -0.206712722778320
129    0.608145655000000    5.866450914700000    6.159283862799999    0.093509383499622   -0.022989772260189    0.124811679124832
107    5.605411198500000    7.204585032000001    4.447369986200000   -0.093600973486900    0.023059882223606   -0.124799229204655
133    6.821702707300000    5.866450914700000    6.159283862799999    0.093437068164349   -0.023064792156219    0.124802730977535
53    9.023071933099999    5.949837787100000    6.303757438599999    0.122735321521759    0.008535802364349    0.206668257713318
63    9.617598366399999    7.121198551700000    4.302896728600000   -0.122650340199471   -0.008551642298698   -0.206655949354172
111   11.818968337799999    7.204585032000001    4.447369986200000   -0.093555964529514    0.022987224161625   -0.124770469963551
27    0.297262781700000    9.217596871800000    4.302896728600000   -0.122743591666222    0.008389130234718   -0.206791281700134
51    2.809515539400000   12.485355956499999    6.303757438599999    0.134814232587814    0.027306482195854    0.237886548042297
131    0.608145655000000   12.401968705000000    6.159283862799999    0.094094067811966   -0.021716773509979    0.124613054096699
147    2.498632815300000    9.134210391500000    4.447369986200000   -0.093559883534908   -0.023484773933887   -0.124789617955685
155    3.714923951199999   10.472344887900000    6.159283862799999    0.092852570116520    0.023712232708931    0.124443821609020
31    6.510819237499998    9.217596871800000    4.302896728600000   -0.122791498899460    0.008458495140076   -0.206806451082230
35    5.916293922700000   10.388957636400002    6.303757438599999    0.123699299991131   -0.008984103798866    0.206865310668945
135    6.821702707300000   12.401968705000000    6.159283862799999    0.093246378004551   -0.022347666323185    0.124813966453075
39   12.129850316399997   10.388957636400002    6.303757438599999    0.122185744345188   -0.009558752179146    0.206638395786285
55    9.023071933099999   12.485355956499999    6.303757438599999    0.122860588133335    0.008542239665985    0.206612825393677
151    8.712189954599999    9.134210391500000    4.447369986200000   -0.093524888157845   -0.022859029471874   -0.124742768704891
159    9.928480344900001   10.472344887900000    6.159283862799999    0.093397334218025    0.022971905767918    0.124756008386612
73    2.809254619699999    2.831604665700000    7.954990625400001   -0.017771610990167    0.065386585891247    0.000263775233179
97    3.714923951199999    3.936826339400000    9.750697388000001    0.093588300049305    0.025243662297726   -0.124379634857178
113    3.656442017100000    0.695810490500000    7.964990625399999    0.023328851908445   -0.069681875407696   -0.048380248248577
177    0.549663671100000    2.571948633400000    7.954990625400001    0.022889479994774    0.070283167064190   -0.000501166330650
9    5.916293922700000    3.853439467000000    9.606223812200000    0.122074998915195   -0.008648589253426   -0.206576585769653
81    5.916033189399998    0.436154327500000    7.954990625400001   -0.017894025892019   -0.065399199724197   -0.000144302379340
181    6.763220400299998    2.571948633400000    7.954990625400001    0.022863268852234    0.070303767919540   -0.000510005746037
13   12.129850316399997    3.853439467000000    9.606223812200000    0.122579917311668   -0.008424028754234   -0.206729069352150
77    9.022811199800000    2.831604665700000    7.954990625400001   -0.017780361697078    0.065399542450905    0.000011926051229
85   12.129589583100000    0.436154327500000    7.954990625400001   -0.017798475921154   -0.065385192632675    0.000235458894167
101    9.928480344900001    3.936826339400000    9.750697388000001    0.093539595603943    0.022977858781815   -0.124789714813232
117    9.869998783600000    0.695810490500000    7.954990625400001    0.022970343008637   -0.070184893906116   -0.000139759620652
1    2.809515539400000    5.949837787100000    9.606223812200000    0.122878938913345    0.007936418056488   -0.206606864929199
115    3.656442017100000    7.231328999700000    7.954990625400001    0.022925483062863   -0.070305697619915   -0.000017842277884
161    0.608145655000000    5.866450914700000    9.750697388000001    0.093420371413231   -0.022936619818211   -0.124733753502369
83    5.916033189399998    6.971672392300000    7.954990625400001   -0.017809446901083   -0.065390154719353    0.000023899134248
165    6.821702707300000    5.866450914700000    9.750697388000001    0.093463338911533   -0.022805467247963   -0.124688588082790
5    9.023071933099999    5.949837787100000    9.606223812200000    0.122644364833832    0.008495897054672   -0.206669211387634
87   12.129589583100000    6.971672392300000    7.954990625400001   -0.017847172915936   -0.065402440726757   -0.000009482082532
119    9.869998783600000    7.231328999700000    7.954990625400001    0.022921312600374   -0.070319212973118    0.000025685410947
3    2.809515539400000   12.485355956499999    9.606223812200000    0.110016733407974   -0.011165112257004   -0.174651741981506
75    2.809254619699999    9.367123031200000    7.954990625400001   -0.017838351428509    0.065427020192146    0.000029883347452
99    3.714923951199999   10.472344887900000    9.750697388000001    0.093954257667065    0.022458098828793   -0.125111490488052
163    0.608145655000000   12.401968705000000    9.750697388000001    0.093290150165558   -0.024146951735020   -0.125027403235435
179    0.549663671100000    9.107466423800000    7.954990625400001    0.022955767810345    0.070257596671581   -0.000102049205452
11    5.916293922700000   10.388957636400002    9.606223812200000    0.121591344475746   -0.007991448044777   -0.206487461924553
167    6.821702707300000   12.401968705000000    9.750697388000001    0.093591943383217   -0.023496374487877   -0.124723657965660
183    6.763220400299998    9.107466423800000    7.954990625400001    0.022893033921719    0.070302486419678   -0.000086727552116
7    9.023071933099999   12.485355956499999    9.606223812200000    0.122396141290665    0.008482649922371   -0.206605434417725
15   12.129850316399997   10.388957636400002    9.606223812200000    0.123131647706032   -0.007396146655083   -0.206644088029861
79    9.022811199800000    9.367123031200000    7.954990625400001   -0.017812609672546    0.065395720303059   -0.000026079826057
103    9.928480344900001   10.472344887900000    9.750697388000001    0.093533791601658    0.022702828049660   -0.124697662889957
18    0.297262781700000    2.682078702400000   11.607084522199999   -0.122161105275154    0.008211135864258    0.206538558006287
42    3.404041227099999    0.585680473800000   11.607084522199999   -0.121945098042488   -0.007634252309799    0.204485669732094
90    3.404301960299999    3.703913307600000   13.258317709000000    0.017750946804881   -0.065511107444763   -0.000145263780723
138    2.498632815300000    2.598692026100000   11.462611582800001   -0.092197850346565   -0.026494890451431    0.124168820679188
22    6.510819237499998    2.682078702400000   11.607084522199999   -0.123028352856636    0.008022412657738    0.206539690494537
170    5.605411198500000    0.669067150100000   11.462611582800001   -0.096801862120628    0.022754080593586    0.124701999127865
186    5.663893132700000    3.963569536000000   13.258317709000000   -0.022948911413550   -0.070227935910225    0.000170176848769
46    9.617598366399999    0.585680473800000   11.607084522199999   -0.122572109103203   -0.008506253361702    0.206759020686150
94    9.617859099700000    3.703913307600000   13.258317709000000    0.017806831747293   -0.065371625125408    0.000019529135898
142    8.712189954599999    2.598692026100000   11.462611582800001   -0.093358777463436   -0.022895030677319    0.124755285680294
174   11.818968337799999    0.669067150100000   11.462611582800001   -0.093812637031078    0.022832952439785    0.125013336539268
190   11.877449899200000    3.963569536000000   13.258317709000000   -0.022959642112255   -0.070231288671494    0.000145720317960
44    3.404041227099999    7.121198551700000   11.607084522199999   -0.122711740434170   -0.008461683988571    0.206630945205688
66    0.297523738700000    6.099363946500000   13.258317709000000    0.017829235643148    0.065385259687901   -0.000000845640898
122    2.557114749400000    5.839707718100000   13.258317709000000   -0.022924371063709    0.070328004658222    0.000127384701045
70    6.511080716399999    6.099363946500000   13.258317709000000    0.017811428755522    0.065418101847172    0.000000497326255
172    5.605411198500000    7.204585032000001   11.462611582800001   -0.093303270637989    0.022865161299706    0.124730192124844
48    9.617598366399999    7.121198551700000   11.607084522199999   -0.122616708278656   -0.008473202586174    0.206709772348404
126    8.770671515900000    5.839707718100000   13.258317709000000   -0.022852268069983    0.070370391011238    0.000021387822926
176   11.818968337799999    7.204585032000001   11.462611582800001   -0.093545287847519    0.022870816290379    0.124773643910885
20    0.297262781700000    9.217596871800000   11.607084522199999   -0.122535079717636    0.008579954504967    0.206599146127701
68    0.297523738700000   12.634882115900002   13.258317709000000    0.017911825329065    0.065501451492310   -0.000157785136253
92    3.404301960299999   10.239431477000000   13.258317709000000    0.017687067389488   -0.065320618450642   -0.000171085237525
124    2.557114749400000   12.375225508500000   13.258317709000000   -0.021778274327517    0.071776725351810   -0.004468958824873
140    2.498632815300000    9.134210391500000   11.462611582800001   -0.093405954539776   -0.022358223795891    0.124745279550552
24    6.510819237499998    9.217596871800000   11.607084522199999   -0.122538857161999    0.008494853973389    0.206674754619598
72    6.511080716399999   12.634882115900002   13.258317709000000    0.017765702679753    0.065345786511898    0.000089166685939
188    5.663893132700000   10.499088084400002   13.258317709000000   -0.022773263975978   -0.070361755788326    0.000148687046021
96    9.617859099700000   10.239431477000000   13.258317709000000    0.017831418663263   -0.065392211079597    0.000001100124791
128    8.770671515900000   12.375225508500000   13.258317709000000   -0.022873103618622    0.070320628583431    0.000082992482930
144    8.712189954599999    9.134210391500000   11.462611582800001   -0.093408606946468   -0.022941038012505    0.124719500541687
192   11.877449899200000   10.499088084400002   13.258317709000000   -0.022927846759558   -0.070339575409889    0.000134816160426
26    0.297262781700000    2.682078702400000   14.909550895800001   -0.122610211372375    0.008436173200607   -0.206674814224243
58    3.404041227099999    0.585680473800000   14.909550895800001   -0.122667364776134   -0.008453249931335   -0.206619113683701
146    2.498632815300000    2.598692026100000   15.054023835200001   -0.093593038618565   -0.022847309708595   -0.124636501073837
154    3.714923951199999    3.936826339400000   16.765937393600002    0.093468829989433    0.022933848202229    0.124703601002693
30    6.510819237499998    2.682078702400000   14.909550895800001   -0.122588612139225    0.008384153246880   -0.206645995378494
34    5.916293922700000    3.853439467000000   16.910411605800000    0.122642323374748   -0.008451089262962    0.206716328859329
106    5.605411198500000    0.669067150100000   15.054023835200001   -0.093304969370365    0.022982381284237   -0.124700352549553
38   12.129850316399997    3.853439467000000   16.910411605800000    0.122644789516926   -0.008465752005577    0.206731915473938
62    9.617598366399999    0.585680473800000   14.909550895800001   -0.122635796666145   -0.008442074060440   -0.206718683242798
110   11.818968337799999    0.669067150100000   15.054023835200001   -0.093508303165436    0.023005291819572   -0.124754518270493
150    8.712189954599999    2.598692026100000   15.054023835200001   -0.093540817499161   -0.022986806929111   -0.124732345342636
158    9.928480344900001    3.936826339400000   16.765937393600002    0.093506276607513    0.022984154522419    0.124759167432785
50    2.809515539400000    5.949837787100000   16.910411605800000    0.122642174363136    0.008455231785774    0.206728875637054
60    3.404041227099999    7.121198551700000   14.909550895800001   -0.122632838785648   -0.008451178669930   -0.206720203161240
130    0.608145655000000    5.866450914700000   16.765937393600002    0.093515776097775   -0.022972710430622    0.124765716493130
108    5.605411198500000    7.204585032000001   15.054023835200001   -0.093508720397949    0.022981613874435   -0.124743454158306
134    6.821702707300000    5.866450914700000   16.765937393600002    0.093508966267109   -0.022962681949139    0.124752521514893
54    9.023071933099999    5.949837787100000   16.910411605800000    0.122641377151012    0.008453100919724    0.206742838025093
64    9.617598366399999    7.121198551700000   14.909550895800001   -0.122634112834930   -0.008446186780930   -0.206730186939240
112   11.818968337799999    7.204585032000001   15.054023835200001   -0.093525320291519    0.023011825978756   -0.124765358865261
28    0.297262781700000    9.217596871800000   14.909550895800001   -0.122647933661938    0.008447274565697   -0.206726089119911
52    2.809515539400000   12.485355956499999   16.910411605800000    0.122618809342384    0.008429363369942    0.206769570708275
132    0.608145655000000   12.401968705000000   16.765937393600002    0.093545787036419   -0.022960126399994    0.124728254973888
148    2.498632815300000    9.134210391500000   15.054023835200001   -0.093536533415318   -0.023025989532471   -0.124739751219749
156    3.714923951199999   10.472344887900000   16.765937393600002    0.093492574989796    0.023000851273537    0.124743029475212
32    6.510819237499998    9.217596871800000   14.909550895800001   -0.122639611363411    0.008447229862213   -0.206753373146057
36    5.916293922700000   10.388957636400002   16.910411605800000    0.122641280293465   -0.008453547954559    0.206729471683502
136    6.821702707300000   12.401968705000000   16.765937393600002    0.093476779758930   -0.022937327623367    0.124697543680668
40   12.129850316399997   10.388957636400002   16.910411605800000    0.122637718915939   -0.008454144001007    0.206719905138016
56    9.023071933099999   12.485355956499999   16.910411605800000    0.122636079788208    0.008451521396637    0.206736207008362
152    8.712189954599999    9.134210391500000   15.054023835200001   -0.093500323593616   -0.022979848086834   -0.124735191464424
160    9.928480344900001   10.472344887900000   16.765937393600002    0.093498565256596    0.022964008152485    0.124747410416603
74    2.809254619699999    2.831604665700000   18.561644792599999   -0.017799448221922    0.065401583909988    0.000001763459295
98    3.714923951199999    3.936826339400000   20.357352191600000    0.093546368181705    0.023012422025204   -0.124851211905479
114    3.656442017100000    0.695810490500000   18.561644792599999    0.022867321968079   -0.070357404649258   -0.000082568731159
178    0.549663671100000    2.571948633400000   18.561644792599999    0.022864371538162    0.070357829332352   -0.000025312183425
10    5.916293922700000    3.853439467000000   20.212877979400002    0.122629530727863   -0.008455991744995   -0.206713587045670
82    5.916033189399998    0.436154327500000   18.561644792599999   -0.017806725576520   -0.065399095416069   -0.000002054497600
182    6.763220400299998    2.571948633400000   18.561644792599999    0.022872449830174    0.070355676114559   -0.000006712507457
14   12.129850316399997    3.853439467000000   20.212877979400002    0.122637346386909   -0.008476153016090   -0.206727743148804
78    9.022811199800000    2.831604665700000   18.561644792599999   -0.017804920673370    0.065396517515182   -0.000007831025869
86   12.129589583100000    0.436154327500000   18.561644792599999   -0.017804708331823   -0.065404973924160    0.000012329875062
102    9.928480344900001    3.936826339400000   20.357352191600000    0.093485191464424    0.022957570850849   -0.124769702553749
118    9.869998783600000    0.695810490500000   18.561644792599999    0.022865723818541   -0.070356562733650   -0.000017874874175
2    2.809515539400000    5.949837787100000   20.212877979400002    0.122636362910271    0.008460432291031   -0.206723630428314
116    3.656442017100000    7.231328999700000   18.561644792599999    0.022866468876600   -0.070360101759434   -0.000017075013602
162    0.608145655000000    5.866450914700000   20.357352191600000    0.093500554561615   -0.022945970296860   -0.124770648777485
84    5.916033189399998    6.971672392300000   18.561644792599999   -0.017805324867368   -0.065399169921875   -0.000011337711840
166    6.821702707300000    5.866450914700000   20.357352191600000    0.093507133424282   -0.022995240986347   -0.124795824289322
6    9.023071933099999    5.949837787100000   20.212877979400002    0.122630663216114    0.008456990122795   -0.206721395254135
88   12.129589583100000    6.971672392300000   18.561644792599999   -0.017808234319091   -0.065392524003983   -0.000004413671377
120    9.869998783600000    7.231328999700000   18.561644792599999    0.022865073755383   -0.070360735058784   -0.000033326447010
4    2.809515539400000   12.485355956499999   20.212877979400002    0.122645199298859    0.008475959300995   -0.206680461764336
76    2.809254619699999    9.367123031200000   18.561644792599999   -0.017800875008106    0.065397679805756    0.000007773283869
100    3.714923951199999   10.472344887900000   20.357352191600000    0.093537241220474    0.022955432534218   -0.124831706285477
164    0.608145655000000   12.401968705000000   20.357352191600000    0.093474745750427   -0.023006215691566   -0.124834492802620
180    0.549663671100000    9.107466423800000   18.561644792599999    0.022868655622005    0.070349484682083   -0.000021263025701
12    5.916293922700000   10.388957636400002   20.212877979400002    0.122622191905975   -0.008454784750938   -0.206721857190132
168    6.821702707300000   12.401968705000000   20.357352191600000    0.093527354300022   -0.023013956844807   -0.124847777187824
184    6.763220400299998    9.107466423800000   18.561644792599999    0.022854506969452    0.070370957255363   -0.000010679941624
8    9.023071933099999   12.485355956499999   20.212877979400002    0.122641660273075    0.008453011512756   -0.206721544265747
16   12.129850316399997   10.388957636400002   20.212877979400002    0.122637376189232   -0.008447438478470   -0.206717640161514
80    9.022811199800000    9.367123031200000   18.561644792599999   -0.017792135477066    0.065398365259171    0.000000810250640
104    9.928480344900001   10.472344887900000   20.357352191600000    0.093518704175949    0.022983320057392   -0.124799802899361
