ITEM: TIMESTEP
0
ITEM: NUMBER OF ATOMS
192
ITEM: BOX BOUNDS xy xz yz pp pp pp
0.0000000000000000e+00 1.2427113533000000e+01 0.0000000000000000e+00
0.0000000000000000e+00 1.3071036338800001e+01 0.0000000000000000e+00
0.0000000000000000e+00 2.1213308334400001e+01 0.0000000000000000e+00
ITEM: ATOMS id xu yu zu fx fy fz
17    0.297262781700000    2.682078702400000    1.000430206500000   -0.122649520635605    0.008548140525818    0.206721425056458
41    3.404041227099999    0.585680473800000    1.000430206500000   -0.122655816376209   -0.008479103446007    0.206651896238327
89    3.404301960299999    3.703913307600000    2.651663541800000    0.017844913527369   -0.065362431108952   -0.000006167450920
137    2.498632815300000    2.598692026100000    0.855957012500000   -0.093516923487186   -0.022951230406761    0.124740436673164
21    6.510819237499998    2.682078702400000    1.000430206500000   -0.122709527611732    0.008515775203705    0.206651121377945
169    5.605411198500000    0.669067150100000    0.855957012500000   -0.093467101454735    0.022909723222256    0.124746106564999
185    5.663893132700000    3.963569536000000    2.651663541800000   -0.022942399606109   -0.070262260735035   -0.000163733959198
45    9.617598366399999    0.585680473800000    1.000430206500000   -0.122688874602318   -0.008505031466484    0.206707328557968
93    9.617859099700000    3.703913307600000    2.651663541800000    0.017835162580013   -0.065405130386353    0.000018888385966
141    8.712189954599999    2.598692026100000    0.855957012500000   -0.093412794172764   -0.022933810949326    0.124718345701694
173   11.818968337799999    0.669067150100000    0.855957012500000   -0.093503415584564    0.022937647998333    0.124734692275524
189   11.877449899200000    3.963569536000000    2.651663541800000   -0.022872276604176   -0.070377320051193   -0.000014974371879
43    3.404041227099999    7.121198551700000    1.000430206500000   -0.122674703598022   -0.008522227406502    0.206683322787285
65    0.297523738700000    6.099363946500000    2.651663541800000    0.017852872610092    0.065380468964577   -0.000030349008739
121    2.557114749400000    5.839707718100000    2.651663541800000   -0.022891942411661    0.070296935737133    0.000031508971006
69    6.511080716399999    6.099363946500000    2.651663541800000    0.017828242853284    0.065361477434635    0.000037896446884
171    5.605411198500000    7.204585032000001    0.855957012500000   -0.093434415757656    0.023016348481178    0.124746583402157
47    9.617598366399999    7.121198551700000    1.000430206500000   -0.122597947716713   -0.008542627096176    0.206690460443497
125    8.770671515900000    5.839707718100000    2.651663541800000   -0.022889198735356    0.070335634052753   -0.000023879110813
175   11.818968337799999    7.204585032000001    0.855957012500000   -0.093528948724270    0.022962450981140    0.124716065824032
19    0.297262781700000    9.217596871800000    1.000430206500000   -0.122678011655807    0.008466675877571    0.206646546721458
67    0.297523738700000   12.634882115900002    2.651663541800000    0.017823088914156    0.065390929579735    0.000003742519766
91    3.404301960299999   10.239431477000000    2.651663541800000    0.017865991219878   -0.065399460494518    0.000009951984794
123    2.557114749400000   12.375225508500000    2.651663541800000   -0.022876959294081    0.070369794964790    0.000085278981715
139    2.498632815300000    9.134210391500000    0.855957012500000   -0.093512356281281   -0.022945746779442    0.124738186597824
23    6.510819237499998    9.217596871800000    1.000430206500000   -0.122752808034420    0.008480712771416    0.206725791096687
71    6.511080716399999   12.634882115900002    2.651663541800000    0.017793297767639    0.065415509045124   -0.000024731270969
187    5.663893132700000   10.499088084400002    2.651663541800000   -0.022887537255883   -0.070407368242741   -0.000002980232239
95    9.617859099700000   10.239431477000000    2.651663541800000    0.017839167267084   -0.065379261970520    0.000014557037503
127    8.770671515900000   12.375225508500000    2.651663541800000   -0.022853743284941    0.070291526615620   -0.000056042335927
143    8.712189954599999    9.134210391500000    0.855957012500000   -0.093463107943535   -0.022917740046978    0.124735370278358
191   11.877449899200000   10.499088084400002    2.651663541800000   -0.022962812334299   -0.070261389017105   -0.000057353081502
25    0.297262781700000    2.682078702400000    4.302896728600000   -0.122679896652699    0.008540868759155   -0.206625059247017
57    3.404041227099999    0.585680473800000    4.302896728600000   -0.122596308588982   -0.008474409580231   -0.206610918045044
145    2.498632815300000    2.598692026100000    4.447369986200000   -0.093432322144508   -0.022885456681252   -0.124387308955193
153    3.714923951199999    3.936826339400000    6.159283862799999    0.092212148010731    0.021646641194820    0.126340016722679
29    6.510819237499998    2.682078702400000    4.302896728600000   -0.122701816260815    0.008549451828003   -0.206832826137543
33    5.916293922700000    3.853439467000000    6.303757438599999    0.123283937573433   -0.009294942021370    0.208187893033028
105    5.605411198500000    0.669067150100000    4.447369986200000   -0.093626439571381    0.022760242223740   -0.124862410128117
37   12.129850316399997    3.853439467000000    6.303757438599999    0.122516676783562   -0.008286431431770    0.206314206123352
61    9.617598366399999    0.585680473800000    4.302896728600000   -0.122574239969254   -0.008513167500496   -0.206661134958267
109   11.818968337799999    0.669067150100000    4.447369986200000   -0.093512140214443    0.022976823151112   -0.124754428863525
149    8.712189954599999    2.598692026100000    4.447369986200000   -0.093371160328388   -0.022833384573460   -0.124773174524307
157    9.928480344900001    3.936826339400000    6.159283862799999    0.093560546636581    0.022867545485497    0.124680854380131
49    2.809515539400000    5.949837787100000    6.303757438599999    0.122801430523396    0.008094429969788    0.206464707851410
59    3.404041227099999    7.121198551700000    4.302896728600000   -0.122643142938614   -0.008592918515205   -0.206458777189255
129    0.608145655000000    5.866450914700000    6.159283862799999    0.093436069786549   -0.023009739816189    0.124807618558407
107    5.605411198500000    7.204585032000001    4.447369986200000   -0.093448109924793    0.022962123155594   -0.124673120677471
133    6.821702707300000    5.866450914700000    6.159283862799999    0.093362897634506   -0.022599600255489    0.124424591660500
53    9.023071933099999    5.949837787100000    6.303757438599999    0.122626364231110    0.008506447076797    0.206653714179993
63    9.617598366399999    7.121198551700000    4.302896728600000   -0.122670993208885   -0.008571222424507   -0.206642091274261
111   11.818968337799999    7.204585032000001    4.447369986200000   -0.093649968504906    0.022936835885048   -0.124857954680920
27    0.297262781700000    9.217596871800000    4.302896728600000   -0.122654840350151    0.008568540215492   -0.206666707992554
51    2.809515539400000   12.485355956499999    6.303757438599999    0.122635670006275    0.008436813950539    0.206458315253258
131    0.608145655000000   12.401968705000000    6.159283862799999    0.093394517898560   -0.023013502359390    0.124777823686600
147    2.498632815300000    9.134210391500000    4.447369986200000   -0.093400023877621   -0.022894419729710   -0.124694906175137
155    3.714923951199999   10.472344887900000    6.159283862799999    0.093495428562164    0.022811233997345    0.124744161963463
31    6.510819237499998    9.217596871800000    4.302896728600000   -0.122704684734344    0.008489370346069   -0.206698656082153
35    5.916293922700000   10.388957636400002    6.303757438599999    0.122636273503304   -0.008528813719749    0.206686437129974
135    6.821702707300000   12.401968705000000    6.159283862799999    0.093407280743122   -0.022926688194275    0.124763220548630
39   12.129850316399997   10.388957636400002    6.303757438599999    0.122635744512081   -0.008446246385574    0.206647872924805
55    9.023071933099999   12.485355956499999    6.303757438599999    0.122645951807499    0.008439481258392    0.206590861082077
151    8.712189954599999    9.134210391500000    4.447369986200000   -0.093455292284489   -0.022852189838886   -0.124719664454460
159    9.928480344900001   10.472344887900000    6.159283862799999    0.093502238392830    0.022849246859550    0.124726720154285
73    2.809254619699999    2.831604665700000    7.954990625400001   -0.013634166680276    0.070718087255955    0.008024629205465
97    3.724923951200000    3.936826339400000    9.750697388000001    0.044443186372519    0.044733136892319   -0.137189343571663
113    3.656442017100000    0.695810490500000    7.954990625400001    0.022012118250132   -0.068554170429707    0.000129698310047
177    0.549663671100000    2.571948633400000    7.954990625400001    0.026258263736963    0.070406325161457    0.000217373482883
9    5.916293922700000    3.853439467000000    9.606223812200000    0.165552496910095   -0.008433192968369   -0.203500211238861
81    5.916033189399998    0.436154327500000    7.954990625400001   -0.017895504832268   -0.065284252166748    0.000072515569627
181    6.763220400299998    2.571948633400000    7.954990625400001    0.022645551711321    0.072261244058609    0.000050700269639
13   12.129850316399997    3.853439467000000    9.606223812200000    0.122215047478676   -0.008847057819366   -0.207229375839233
77    9.022811199800000    2.831604665700000    7.954990625400001   -0.017705831676722    0.065100222826004   -0.000364395324141
85   12.129589583100000    0.436154327500000    7.954990625400001   -0.017876060679555   -0.065525591373444   -0.000034864675399
101    9.928480344900001    3.936826339400000    9.750697388000001    0.092342644929886    0.023507267236710   -0.125213682651520
117    9.869998783600000    0.695810490500000    7.954990625400001    0.022989723831415   -0.070302754640579    0.000013627810404
1    2.809515539400000    5.949837787100000    9.606223812200000    0.133507043123245   -0.014879181981087   -0.207910478115082
115    3.656442017100000    7.231328999700000    7.954990625400001    0.022724177688360   -0.069983310997486    0.000659588258713
161    0.608145655000000    5.866450914700000    9.750697388000001    0.094971880316734   -0.023122243583202   -0.124488338828087
83    5.916033189399998    6.971672392300000    7.954990625400001   -0.017528750002384   -0.064875379204750   -0.000283039640635
165    6.821702707300000    5.866450914700000    9.750697388000001    0.094703279435635   -0.026872888207436   -0.125688731670380
5    9.023071933099999    5.949837787100000    9.606223812200000    0.121042326092720    0.008793383836746   -0.206825792789459
87   12.129589583100000    6.971672392300000    7.954990625400001   -0.017790405079722   -0.065304540097713   -0.000074839044828
119    9.869998783600000    7.231328999700000    7.954990625400001    0.022871032357216   -0.070350363850594    0.000100903678685
3    2.809515539400000   12.485355956499999    9.606223812200000    0.122553840279579    0.008661195635796   -0.206873282790184
75    2.809254619699999    9.367123031200000    7.954990625400001   -0.017790194600821    0.065353147685528    0.000063708517700
99    3.714923951199999   10.472344887900000    9.750697388000001    0.093458265066147    0.022883370518684   -0.124794065952301
163    0.608145655000000   12.401968705000000    9.750697388000001    0.093453817069530   -0.023097246885300   -0.124916583299637
179    0.549663671100000    9.107466423800000    7.954990625400001    0.023021172732115    0.070254400372505   -0.000022043939680
11    5.916293922700000   10.388957636400002    9.606223812200000    0.122620083391666   -0.008453845977783   -0.206706568598747
167    6.821702707300000   12.401968705000000    9.750697388000001    0.093357220292091   -0.022988423705101   -0.124438568949699
183    6.763220400299998    9.107466423800000    7.954990625400001    0.022892266511917    0.070375390350819   -0.000004436587915
7    9.023071933099999   12.485355956499999    9.606223812200000    0.122728198766708    0.008346453309059   -0.206688374280930
15   12.129850316399997   10.388957636400002    9.606223812200000    0.122691787779331   -0.008561283349991   -0.206592679023743
79    9.022811199800000    9.367123031200000    7.954990625400001   -0.017844555899501    0.065348699688911   -0.000004253815860
103    9.928480344900001   10.472344887900000    9.750697388000001    0.093344286084175    0.022811867296696   -0.124692946672440
18    0.297262781700000    2.682078702400000   11.607084522199999   -0.116646692156792    0.007645994424820    0.207436829805374
42    3.404041227099999    0.585680473800000   11.607084522199999   -0.123566679656506   -0.003129884600639    0.206335067749023
90    3.404301960299999    3.703913307600000   13.258317709000000    0.017330411821604   -0.066626146435738   -0.002775272121653
138    2.498632815300000    2.598692026100000   11.462611582800001   -0.102186657488346   -0.032140210270882    0.134016513824463
22    6.510819237499998    2.682078702400000   11.607084522199999   -0.127988949418068    0.011737897992134    0.204046651721001
170    5.605411198500000    0.669067150100000   11.462611582800001   -0.093440420925617    0.023245498538017    0.123673245310783
186    5.663893132700000    3.963569536000000   13.258317709000000   -0.022205876186490   -0.070341706275940   -0.003265794832259
46    9.617598366399999    0.585680473800000   11.607084522199999   -0.123357862234116   -0.008385226130486    0.206677153706551
94    9.617859099700000    3.703913307600000   13.258317709000000    0.017583500593901   -0.065346866846085    0.000086338259280
142    8.712189954599999    2.598692026100000   11.462611582800001   -0.093210473656654   -0.023078337311745    0.124701574444771
174   11.818968337799999    0.669067150100000   11.462611582800001   -0.093475528061390    0.023370191454887    0.124824568629265
190   11.877449899200000    3.963569536000000   13.258317709000000   -0.022815514355898   -0.070536151528358   -0.000338370911777
44    3.404041227099999    7.121198551700000   11.607084522199999   -0.122306883335114   -0.008574187755585    0.206513121724129
66    0.297523738700000    6.099363946500000   13.258317709000000    0.017886029556394    0.065368965268135    0.000175963155925
122    2.557114749400000    5.839707718100000   13.258317709000000   -0.022890545427799    0.070878520607948    0.001256859162822
70    6.511080716399999    6.099363946500000   13.258317709000000    0.017432354390621    0.065036587417126   -0.000358842313290
172    5.605411198500000    7.204585032000001   11.462611582800001   -0.093388490378857    0.022628851234913    0.125183284282684
48    9.617598366399999    7.121198551700000   11.607084522199999   -0.122480362653732   -0.008332669734955    0.206893861293793
126    8.770671515900000    5.839707718100000   13.258317709000000   -0.022783521562815    0.070333041250706    0.000124162528664
176   11.818968337799999    7.204585032000001   11.462611582800001   -0.093575477600098    0.023258157074451    0.124920420348644
20    0.297262781700000    9.217596871800000   11.607084522199999   -0.122644864022732    0.008643507957458    0.206861704587936
68    0.297523738700000   12.634882115900002   13.258317709000000    0.017696799710393    0.065135672688484    0.000156472902745
92    3.404301960299999   10.239431477000000   13.258317709000000    0.017801521345973   -0.065290212631226    0.000036037894461
124    2.557114749400000   12.375225508500000   13.258317709000000   -0.022755121812224    0.070218406617641    0.000154181674588
140    2.498632815300000    9.134210391500000   11.462611582800001   -0.093641720712185   -0.022812128067017    0.125193774700165
24    6.510819237499998    9.217596871800000   11.607084522199999   -0.122649669647217    0.008141323924065    0.206693828105927
72    6.511080716399999   12.634882115900002   13.258317709000000    0.017629813402891    0.065872445702553   -0.000502791255713
188    5.663893132700000   10.499088084400002   13.258317709000000   -0.022874925285578   -0.070385016500950    0.000132446177304
96    9.617859099700000   10.239431477000000   13.258317709000000    0.017816610634327   -0.065376251935959    0.000005844747648
128    8.770671515900000   12.375225508500000   13.258317709000000   -0.022885683923960    0.070354133844376    0.000102814265119
144    8.712189954599999    9.134210391500000   11.462611582800001   -0.093401208519936   -0.022818438708782    0.124736554920673
192   11.877449899200000   10.499088084400002   13.258317709000000   -0.022857308387756   -0.070438355207443   -0.000010248506442
26    0.297262781700000    2.682078702400000   14.909550895800001   -0.122636854648590    0.008533805608749   -0.206715881824493
58    3.404041227099999    0.585680473800000   14.909550895800001   -0.122779309749603   -0.008582204580307   -0.206696808338165
146    2.498632815300000    2.598692026100000   15.054023835200001   -0.093537136912346   -0.022985100746155   -0.124299935996532
154    3.714923951199999    3.936826339400000   16.765937393600002    0.093479156494141    0.022928394377232    0.124745927751064
30    6.510819237499998    2.682078702400000   14.909550895800001   -0.122828140854836    0.008730798959732   -0.206846296787262
34    5.916293922700000    3.853439467000000   16.910411605800000    0.122619561851025   -0.008426874876022    0.206654205918312
106    5.605411198500000    0.669067150100000   15.054023835200001   -0.093476921319962    0.022956155240536   -0.124757960438728
38   12.129850316399997    3.853439467000000   16.910411605800000    0.122672855854034   -0.008499845862389    0.206649973988533
62    9.617598366399999    0.585680473800000   14.909550895800001   -0.122632950544357   -0.008482381701469   -0.206641942262650
110   11.818968337799999    0.669067150100000   15.054023835200001   -0.093578457832336    0.022941276431084   -0.124633379280567
150    8.712189954599999    2.598692026100000   15.054023835200001   -0.093441173434258   -0.023019082844257   -0.124846599996090
158    9.928480344900001    3.936826339400000   16.765937393600002    0.093442112207413    0.022943936288357    0.124711886048317
50    2.809515539400000    5.949837787100000   16.910411605800000    0.122629515826702    0.008457615971565    0.206716537475586
60    3.404041227099999    7.121198551700000   14.909550895800001   -0.122671604156494   -0.008495748043060   -0.206808656454086
130    0.608145655000000    5.866450914700000   16.765937393600002    0.093535453081131   -0.022929586470127    0.124775335192680
108    5.605411198500000    7.204585032000001   15.054023835200001   -0.093575946986675    0.023047193884850   -0.124736286699772
134    6.821702707300000    5.866450914700000   16.765937393600002    0.093526847660542   -0.022993013262749    0.124782763421535
54    9.023071933099999    5.949837787100000   16.910411605800000    0.122651547193527    0.008454009890556    0.206747010350227
64    9.617598366399999    7.121198551700000   14.909550895800001   -0.122638434171677   -0.008459344506264   -0.206778660416603
112   11.818968337799999    7.204585032000001   15.054023835200001   -0.093533828854561    0.023001804947853   -0.124727919697762
28    0.297262781700000    9.217596871800000   14.909550895800001   -0.122637182474136    0.008425712585449   -0.206767380237579
52    2.809515539400000   12.485355956499999   16.910411605800000    0.122642755508423    0.008483275771141    0.206664890050888
132    0.608145655000000   12.401968705000000   16.765937393600002    0.093524716794491   -0.023026131093502    0.124813623726368
148    2.498632815300000    9.134210391500000   15.054023835200001   -0.093491196632385   -0.023020803928375   -0.124761156737804
156    3.714923951199999   10.472344887900000   16.765937393600002    0.093523994088173    0.022946871817112    0.124775528907776
32    6.510819237499998    9.217596871800000   14.909550895800001   -0.122633747756481    0.008439257740974   -0.206758394837379
36    5.916293922700000   10.388957636400002   16.910411605800000    0.122638061642647   -0.008450508117676    0.206720709800720
136    6.821702707300000   12.401968705000000   16.765937393600002    0.093528196215630   -0.022972673177719    0.124762699007988
40   12.129850316399997   10.388957636400002   16.910411605800000    0.122639507055283   -0.008443430066109    0.206730559468269
56    9.023071933099999   12.485355956499999   16.910411605800000    0.122627310454845    0.008441179990768    0.206745162606239
152    8.712189954599999    9.134210391500000   15.054023835200001   -0.093511924147606   -0.022985704243183   -0.124739214777946
160    9.928480344900001   10.472344887900000   16.765937393600002    0.093503475189209    0.022969000041485    0.124745607376099
74    2.809254619699999    2.831604665700000   18.561644792599999   -0.017804035916924    0.065400481224060    0.000003620516509
98    3.714923951199999    3.936826339400000   20.357352191600000    0.093521364033222    0.022972688078880   -0.124791227281094
114    3.656442017100000    0.695810490500000   18.561644792599999    0.022877778857946   -0.070352748036385    0.000006794929504
178    0.549663671100000    2.571948633400000   18.561644792599999    0.022867830470204    0.070348091423512    0.000003682449460
10    5.916293922700000    3.853439467000000   20.212877979400002    0.122629247605801   -0.008452907204628   -0.206714004278183
82    5.916033189399998    0.436154327500000   18.561644792599999   -0.017805337905884   -0.065402708947659    0.000011024996638
182    6.763220400299998    2.571948633400000   18.561644792599999    0.022868914529681    0.070361033082008   -0.000048887450248
14   12.129850316399997    3.853439467000000   20.212877979400002    0.122634507715702   -0.008478730916977   -0.206724464893341
78    9.022811199800000    2.831604665700000   18.561644792599999   -0.017798475921154    0.065401546657085   -0.000013411045074
86   12.129589583100000    0.436154327500000   18.561644792599999   -0.017801465466619   -0.065405324101448    0.000005506073194
102    9.928480344900001    3.936826339400000   20.357352191600000    0.093482106924057    0.022954478859901   -0.124765463173389
118    9.869998783600000    0.695810490500000   18.561644792599999    0.022860888391733   -0.070358619093895   -0.000016584061086
2    2.809515539400000    5.949837787100000   20.212877979400002    0.122638292610645    0.008463472127914   -0.206717997789383
116    3.656442017100000    7.231328999700000   18.561644792599999    0.022865444421768   -0.070362202823162   -0.000008362168956
162    0.608145655000000    5.866450914700000   20.357352191600000    0.093498125672340   -0.022944919764996   -0.124770157039165
84    5.916033189399998    6.971672392300000   18.561644792599999   -0.017806982621551   -0.065395824611187   -0.000007916942195
166    6.821702707300000    5.866450914700000   20.357352191600000    0.093507893383503   -0.022997789084911   -0.124796681106091
6    9.023071933099999    5.949837787100000   20.212877979400002    0.122629433870316    0.008456245064735   -0.206723302602768
88   12.129589583100000    6.971672392300000   18.561644792599999   -0.017805999144912   -0.065395042300224   -0.000008018808330
120    9.869998783600000    7.231328999700000   18.561644792599999    0.022864133119583   -0.070358313620090   -0.000030297785997
4    2.809515539400000   12.485355956499999   20.212877979400002    0.122632384300232    0.008455187082291   -0.206715524196625
76    2.809254619699999    9.367123031200000   18.561644792599999   -0.017800867557526    0.065396577119827   -0.000003671739250
100    3.714923951199999   10.472344887900000   20.357352191600000    0.093528337776661    0.022989012300968   -0.124821670353413
164    0.608145655000000   12.401968705000000   20.357352191600000    0.093514449894428   -0.022997543215752   -0.124810837209225
180    0.549663671100000    9.107466423800000   18.561644792599999    0.022867757827044    0.070348098874092   -0.000023173633963
12    5.916293922700000   10.388957636400002   20.212877979400002    0.122628420591354   -0.008459284901619   -0.206718266010284
168    6.821702707300000   12.401968705000000   20.357352191600000    0.093495413661003   -0.022975303232670   -0.124791592359543
184    6.763220400299998    9.107466423800000   18.561644792599999    0.022854583337903    0.070370756089687   -0.000009859446436
8    9.023071933099999   12.485355956499999   20.212877979400002    0.122642144560814    0.008452728390694   -0.206723868846893
16   12.129850316399997   10.388957636400002   20.212877979400002    0.122637555003166   -0.008458554744720   -0.206706494092941
80    9.022811199800000    9.367123031200000   18.561644792599999   -0.017792237922549    0.065397672355175   -0.000000960659236
104    9.928480344900001   10.472344887900000   20.357352191600000    0.093515746295452    0.022983804345131   -0.124802932143211
