ITEM: TIMESTEP
0
ITEM: NUMBER OF ATOMS
192
ITEM: BOX BOUNDS xy xz yz pp pp pp
0.0000000000000000e+00 1.2427113533000000e+01 0.0000000000000000e+00
0.0000000000000000e+00 1.3071036338800001e+01 0.0000000000000000e+00
0.0000000000000000e+00 2.1213308334400001e+01 0.0000000000000000e+00
ITEM: ATOMS id xu yu zu fx fy fz
17    0.297262781700000    2.682078702400000    1.000430206500000   -0.122799277305603    0.009273558855057    0.208877265453339
41    3.404041227099999    0.585680473800000    1.000430206500000   -0.122699931263924   -0.008393019437790    0.206608861684799
89    3.404301960299999    3.703913307600000    2.651663541800000    0.017364302650094   -0.064524173736572    0.000006458023563
137    2.498632815300000    2.598692026100000    0.855957012500000   -0.093409597873688   -0.023349389433861    0.124318562448025
21    6.510819237499998    2.682078702400000    1.000430206500000   -0.122714266180992    0.008531391620636    0.206665605306625
169    5.605411198500000    0.669067150100000    0.855957012500000   -0.093420192599297    0.022882595658302    0.124724522233009
185    5.663893132700000    3.963569536000000    2.651663541800000   -0.022791199386120   -0.070331096649170    0.000030774623156
45    9.617598366399999    0.585680473800000    1.000430206500000   -0.122610419988632   -0.008481785655022    0.206746578216553
93    9.617859099700000    3.703913307600000    2.651663541800000    0.020757455378771   -0.064571842551231    0.000000676140189
141    8.712189954599999    2.598692026100000    0.855957012500000   -0.093536898493767   -0.022892557084560    0.124337039887905
173   11.818968337799999    0.669067150100000    0.855957012500000   -0.093426033854485    0.022993139922619    0.124626196920872
189   11.877449899200000    3.963569536000000    2.651663541800000   -0.017033021897078   -0.056698728352785   -0.000019614220946
43    3.404041227099999    7.121198551700000    1.000430206500000   -0.122814938426018   -0.008777767419815    0.206989899277687
65    0.297523738700000    6.109363946499999    2.651663541800000    0.020972609519958    0.041056059300900   -0.000004613772035
121    2.557114749400000    5.839707718100000    2.651663541800000   -0.024256162345409    0.070743605494499   -0.000019499566406
69    6.511080716399999    6.099363946500000    2.651663541800000    0.017877949401736    0.065371930599213    0.000004495494068
171    5.605411198500000    7.204585032000001    0.855957012500000   -0.093141146004200    0.022926308214664    0.124626144766808
47    9.617598366399999    7.121198551700000    1.000430206500000   -0.123577073216438   -0.008941590785980    0.206760287284851
125    8.770671515900000    5.839707718100000    2.651663541800000   -0.022860312834382    0.070759758353233   -0.000023486092687
175   11.818968337799999    7.204585032000001    0.855957012500000   -0.099051624536514    0.028120987117290    0.117938145995140
19    0.297262781700000    9.217596871800000    1.000430206500000   -0.122642040252686    0.007905364036560    0.207721814513206
67    0.297523738700000   12.634882115900002    2.651663541800000    0.017712017521262    0.065228484570980    0.000007738359272
91    3.404301960299999   10.239431477000000    2.651663541800000    0.017838338389993   -0.065497696399689    0.000009606840649
123    2.557114749400000   12.375225508500000    2.651663541800000   -0.022960986942053    0.070243157446384    0.000054537227697
139    2.498632815300000    9.134210391500000    0.855957012500000   -0.093014262616634   -0.022545985877514    0.124536171555519
23    6.510819237499998    9.217596871800000    1.000430206500000   -0.122819304466248    0.008469253778458    0.206715956330299
71    6.511080716399999   12.634882115900002    2.651663541800000    0.017785228788853    0.065426468849182   -0.000011119991541
187    5.663893132700000   10.499088084400002    2.651663541800000   -0.022864487022161   -0.070383369922638   -0.000007964670658
95    9.617859099700000   10.239431477000000    2.651663541800000    0.018017007037997   -0.065483368933201    0.000016023870558
127    8.770671515900000   12.375225508500000    2.651663541800000   -0.022832464426756    0.070260882377625   -0.000054488889873
143    8.712189954599999    9.134210391500000    0.855957012500000   -0.093365050852299   -0.022960066795349    0.124807327985764
191   11.877449899200000   10.499088084400002    2.651663541800000   -0.023156262934208   -0.070233881473541   -0.000050256636314
25    0.297262781700000    2.682078702400000    4.302896728600000   -0.122872442007065    0.009257227182388   -0.208844125270844
57    3.404041227099999    0.585680473800000    4.302896728600000   -0.122625216841698   -0.008459791541100   -0.206667363643646
145    2.498632815300000    2.598692026100000    4.447369986200000   -0.093342475593090   -0.023316957056522   -0.124315194785595
153    3.714923951199999    3.936826339400000    6.159283862799999    0.093487657606602    0.023062497377396    0.124796316027641
29    6.510819237499998    2.682078702400000    4.302896728600000   -0.122706420719624    0.008530393242836   -0.206694230437279
33    5.916293922700000    3.853439467000000    6.303757438599999    0.122669599950314   -0.008450552821159    0.206659346818924
105    5.605411198500000    0.669067150100000    4.447369986200000   -0.093509159982204    0.022935546934605   -0.124744921922684
37   12.129850316399997    3.853439467000000    6.303757438599999    0.122489668428898   -0.008297100663185    0.207204341888428
61    9.617598366399999    0.585680473800000    4.302896728600000   -0.122511744499207   -0.008482187986374   -0.206717014312744
109   11.818968337799999    0.669067150100000    4.447369986200000   -0.093432515859604    0.023016236722469   -0.124647162854671
149    8.712189954599999    2.598692026100000    4.447369986200000   -0.093608736991882   -0.022855907678604   -0.124369516968727
157    9.928480344900001    3.936826339400000    6.159283862799999    0.093129709362984    0.023011252284050    0.124850049614906
49    2.809515539400000    5.949837787100000    6.303757438599999    0.122284479439259    0.008437812328339    0.206725060939789
59    3.404041227099999    7.121198551700000    4.302896728600000   -0.122778251767159   -0.008806005120277   -0.206947833299637
129    0.608145655000000    5.866450914700000    6.159283862799999    0.094672165811062   -0.024240799248219    0.126273125410080
107    5.605411198500000    7.204585032000001    4.447369986200000   -0.093183115124702    0.022866636514664   -0.124627783894539
133    6.821702707300000    5.866450914700000    6.159283862799999    0.093361824750900   -0.022813275456429    0.124541476368904
53    9.023071933099999    5.949837787100000    6.303757438599999    0.123230822384357    0.008857965469360    0.206046789884567
63    9.617598366399999    7.121198551700000    4.302896728600000   -0.123611591756344   -0.008959159255028   -0.206706196069717
111   11.818968337799999    7.204585032000001    4.447369986200000   -0.099098362028599    0.028028599917889   -0.117979869246483
27    0.297262781700000    9.217596871800000    4.302896728600000   -0.122619219124317    0.007980197668076   -0.207715541124344
51    2.809515539400000   12.485355956499999    6.303757438599999    0.122640609741211    0.008541196584702    0.206591457128525
131    0.608145655000000   12.401968705000000    6.159283862799999    0.093328259885311   -0.023223072290421    0.124765820801258
147    2.498632815300000    9.134210391500000    4.447369986200000   -0.092917472124100   -0.022484511137009   -0.124508939683437
155    3.714923951199999   10.472344887900000    6.159283862799999    0.093221947550774    0.022578962147236    0.124434262514114
31    6.510819237499998    9.217596871800000    4.302896728600000   -0.122778899967670    0.008496955037117   -0.206708401441574
35    5.916293922700000   10.388957636400002    6.303757438599999    0.122711613774300   -0.008513584733009    0.206667125225067
135    6.821702707300000   12.401968705000000    6.159283862799999    0.093434728682041   -0.022892907261848    0.124768972396851
39   12.129850316399997   10.388957636400002    6.303757438599999    0.122418560087681   -0.007927790284157    0.207120865583420
55    9.023071933099999   12.485355956499999    6.303757438599999    0.122612103819847    0.008474946022034    0.206607922911644
151    8.712189954599999    9.134210391500000    4.447369986200000   -0.093347221612930   -0.022892609238625   -0.124779187142849
159    9.928480344900001   10.472344887900000    6.159283862799999    0.093932852149010    0.022767767310143    0.124711349606514
73    2.809254619699999    2.831604665700000    7.954990625400001   -0.017831388860941    0.065396547317505   -0.000012137927115
97    3.714923951199999    3.936826339400000    9.750697388000001    0.093509711325169    0.022983282804489   -0.124771691858768
113    3.656442017100000    0.695810490500000    7.954990625400001    0.022966269403696   -0.070229224860668    0.000047771958634
177    0.549663671100000    2.571948633400000    7.954990625400001    0.022881403565407    0.070318922400475    0.000064453808591
9    5.916293922700000    3.853439467000000    9.606223812200000    0.122611425817013   -0.008496299386024   -0.206666558980942
81    5.916033189399998    0.436154327500000    7.954990625400001   -0.017839314416051   -0.065398246049881   -0.000019750557840
181    6.763220400299998    2.571948633400000    7.954990625400001    0.022863883525133    0.070316933095455   -0.000011489726603
13   12.129850316399997    3.853439467000000    9.606223812200000    0.122679069638252   -0.008535519242287   -0.206676989793777
77    9.022811199800000    2.831604665700000    7.954990625400001   -0.017791558057070    0.065398186445236   -0.000009824056178
85   12.129589583100000    0.436154327500000    7.954990625400001   -0.017785642296076   -0.065319746732712   -0.000051472026826
101    9.928480344900001    3.936826339400000    9.750697388000001    0.093536749482155    0.022979825735092   -0.124814465641975
117    9.869998783600000    0.695810490500000    7.954990625400001    0.022977290675044   -0.070166744291782    0.000021235784516
1    2.809515539400000    5.949837787100000    9.606223812200000    0.122719347476959    0.008447900414467   -0.206676572561264
115    3.656442017100000    7.231328999700000    7.954990625400001    0.022856920957565   -0.070366725325584   -0.000100734643638
161    0.608145655000000    5.866450914700000    9.750697388000001    0.093442380428314   -0.022964753210545   -0.124768689274788
83    5.916033189399998    6.971672392300000    7.954990625400001   -0.017775952816010   -0.065428376197815   -0.000067923218012
165    6.821702707300000    5.866450914700000    9.750697388000001    0.093490205705166   -0.022932454943657   -0.124749675393105
5    9.023071933099999    5.949837787100000    9.606223812200000    0.122664794325829    0.008522704243660   -0.206713229417801
87   12.129589583100000    6.971672392300000    7.954990625400001   -0.017834125086665   -0.065503999590874   -0.000032679930882
119    9.869998783600000    7.231328999700000    7.954990625400001    0.023025238886476   -0.070253252983093    0.000071683432907
3    2.809515539400000   12.485355956499999    9.606223812200000    0.122640006244183    0.008500769734383   -0.206625401973724
75    2.809254619699999    9.367123031200000    7.954990625400001   -0.017799891531467    0.065413460135460   -0.000012542586774
99    3.714923951199999   10.472344887900000    9.750697388000001    0.093483187258244    0.022873230278492   -0.124722331762314
163    0.608145655000000   12.401968705000000    9.750697388000001    0.093478888273239   -0.022886119782925   -0.124756440520287
179    0.549663671100000    9.107466423800000    7.954990625400001    0.022888543084264    0.070303291082382   -0.000128710176796
11    5.916293922700000   10.388957636400002    9.606223812200000    0.122643746435642   -0.008509293198586   -0.206677645444870
167    6.821702707300000   12.401968705000000    9.750697388000001    0.093432255089283   -0.022965289652348   -0.124766938388348
183    6.763220400299998    9.107466423800000    7.954990625400001    0.022904187440872    0.070298887789249    0.000016885809600
7    9.023071933099999   12.485355956499999    9.606223812200000    0.122661918401718    0.008551836013794   -0.206613302230835
15   12.129850316399997   10.388957636400002    9.606223812200000    0.122656084597111   -0.008510753512383   -0.206615686416626
79    9.022811199800000    9.367123031200000    7.954990625400001   -0.017778331413865    0.065395362675190   -0.000033387914300
103    9.928480344900001   10.472344887900000    9.750697388000001    0.093455858528614    0.022826388478279   -0.124722480773926
18    0.297262781700000    2.682078702400000   11.607084522199999   -0.122707799077034    0.008549869060516    0.206641137599945
42    3.404041227099999    0.585680473800000   11.607084522199999   -0.122699275612831   -0.008537262678146    0.206707119941711
90    3.404301960299999    3.703913307600000   13.258317709000000    0.017816988751292   -0.065374478697777   -0.000008794300811
138    2.498632815300000    2.598692026100000   11.462611582800001   -0.093445800244808   -0.022907845675945    0.124774411320686
22    6.510819237499998    2.682078702400000   11.607084522199999   -0.122693903744221    0.008460834622383    0.206664144992828
170    5.605411198500000    0.669067150100000   11.462611582800001   -0.093430630862713    0.022971622645855    0.124788470566273
186    5.663893132700000    3.963569536000000   13.258317709000000   -0.022911015897989   -0.070303529500961    0.000026812776923
46    9.617598366399999    0.585680473800000   11.607084522199999   -0.122708491981030   -0.008535355329514    0.206704914569855
94    9.617859099700000    3.703913307600000   13.258317709000000    0.017800487577915   -0.065372362732887    0.000017317943275
142    8.712189954599999    2.598692026100000   11.462611582800001   -0.093478217720985   -0.022960633039474    0.124781966209412
174   11.818968337799999    0.669067150100000   11.462611582800001   -0.093436062335968    0.022906817495823    0.124774262309074
190   11.877449899200000    3.963569536000000   13.258317709000000   -0.022874845191836   -0.070318564772606    0.000018686056137
44    3.404041227099999    7.121198551700000   11.607084522199999   -0.122676536440849   -0.008488774299622    0.206701964139938
66    0.297523738700000    6.099363946500000   13.258317709000000    0.017839273437858    0.065399169921875    0.000005288049579
122    2.557114749400000    5.839707718100000   13.258317709000000   -0.022894568741322    0.070340357720852    0.000035430566641
70    6.511080716399999    6.099363946500000   13.258317709000000    0.017808098345995    0.065414264798164   -0.000002451241016
172    5.605411198500000    7.204585032000001   11.462611582800001   -0.093429222702980    0.022966675460339    0.124782651662827
48    9.617598366399999    7.121198551700000   11.607084522199999   -0.122630298137665   -0.008462429046631    0.206715762615204
126    8.770671515900000    5.839707718100000   13.258317709000000   -0.022862892597914    0.070368796586990    0.000013924669474
176   11.818968337799999    7.204585032000001   11.462611582800001   -0.093522973358631    0.022981204092503    0.124781511723995
20    0.297262781700000    9.217596871800000   11.607084522199999   -0.122632540762424    0.008448988199234    0.206734716892242
68    0.297523738700000   12.634882115900002   13.258317709000000    0.017804799601436    0.065391346812248    0.000007680151612
92    3.404301960299999   10.239431477000000   13.258317709000000    0.017815414816141   -0.065396383404732    0.000000231309599
124    2.557114749400000   12.375225508500000   13.258317709000000   -0.022874439135194    0.070342503488064    0.000034150027204
140    2.498632815300000    9.134210391500000   11.462611582800001   -0.093499124050140   -0.022894084453583    0.124738715589046
24    6.510819237499998    9.217596871800000   11.607084522199999   -0.122637659311295    0.008465409278870    0.206736296415329
72    6.511080716399999   12.634882115900002   13.258317709000000    0.017813371494412    0.065393872559071    0.000017129816115
188    5.663893132700000   10.499088084400002   13.258317709000000   -0.022871604189277   -0.070367693901062    0.000007746741176
96    9.617859099700000   10.239431477000000   13.258317709000000    0.017812876030803   -0.065394610166550    0.000006602378562
128    8.770671515900000   12.375225508500000   13.258317709000000   -0.022863533347845    0.070351175963879    0.000020881649107
144    8.712189954599999    9.134210391500000   11.462611582800001   -0.093493245542049   -0.022951140999794    0.124758206307888
192   11.877449899200000   10.499088084400002   13.258317709000000   -0.022871656343341   -0.070364639163017    0.000010297866538
26    0.297262781700000    2.682078702400000   14.909550895800001   -0.122614309191704    0.008414581418037   -0.206681668758392
58    3.404041227099999    0.585680473800000   14.909550895800001   -0.122636407613754   -0.008451491594315   -0.206721127033234
146    2.498632815300000    2.598692026100000   15.054023835200001   -0.093544989824295   -0.022991083562374   -0.124740593135357
154    3.714923951199999    3.936826339400000   16.765937393600002    0.093497008085251    0.022965997457504    0.124767854809761
30    6.510819237499998    2.682078702400000   14.909550895800001   -0.122608199715614    0.008409768342972   -0.206677883863449
34    5.916293922700000    3.853439467000000   16.910411605800000    0.122629433870316   -0.008462235331535    0.206717878580093
106    5.605411198500000    0.669067150100000   15.054023835200001   -0.093500405550003    0.022991247475147   -0.124749451875687
38   12.129850316399997    3.853439467000000   16.910411605800000    0.122692897915840   -0.008512467145920    0.206795394420624
62    9.617598366399999    0.585680473800000   14.909550895800001   -0.122640207409859   -0.008449226617813   -0.206719845533371
110   11.818968337799999    0.669067150100000   15.054023835200001   -0.093500524759293    0.022996462881565   -0.124744437634945
150    8.712189954599999    2.598692026100000   15.054023835200001   -0.093541800975800   -0.023000322282314   -0.124742299318314
158    9.928480344900001    3.936826339400000   16.765937393600002    0.093496367335320    0.022994317114353    0.124785736203194
50    2.809515539400000    5.949837787100000   16.910411605800000    0.122657395899296    0.008464261889458    0.206754148006439
60    3.404041227099999    7.121198551700000   14.909550895800001   -0.122635558247566   -0.008445575833321   -0.206720083951950
130    0.608145655000000    5.866450914700000   16.765937393600002    0.093519605696201   -0.022957868874073    0.124778002500534
108    5.605411198500000    7.204585032000001   15.054023835200001   -0.093508720397949    0.022976115345955   -0.124744586646557
134    6.821702707300000    5.866450914700000   16.765937393600002    0.093513980507851   -0.022967234253883    0.124758690595627
54    9.023071933099999    5.949837787100000   16.910411605800000    0.122651778161526    0.008481025695801    0.206768572330475
64    9.617598366399999    7.121198551700000   14.909550895800001   -0.122631974518299   -0.008445858955383   -0.206716835498810
112   11.818968337799999    7.204585032000001   15.054023835200001   -0.093531012535095    0.022993840277195   -0.124754540622234
28    0.297262781700000    9.217596871800000   14.909550895800001   -0.122637644410133    0.008440703153610   -0.206732243299484
52    2.809515539400000   12.485355956499999   16.910411605800000    0.122634790837765    0.008453771471977    0.206739306449890
132    0.608145655000000   12.401968705000000   16.765937393600002    0.093512400984764   -0.022973164916039    0.124747857451439
148    2.498632815300000    9.134210391500000   15.054023835200001   -0.093501456081867   -0.022979833185673   -0.124744236469269
156    3.714923951199999   10.472344887900000   16.765937393600002    0.093499258160591    0.022962987422943    0.124749436974525
32    6.510819237499998    9.217596871800000   14.909550895800001   -0.122638717293739    0.008447483181953   -0.206735312938690
36    5.916293922700000   10.388957636400002   16.910411605800000    0.122635111212730   -0.008451104164124    0.206733316183090
136    6.821702707300000   12.401968705000000   16.765937393600002    0.093507684767246   -0.022975429892540    0.124752402305603
40   12.129850316399997   10.388957636400002   16.910411605800000    0.122631892561913   -0.008441194891930    0.206715196371078
56    9.023071933099999   12.485355956499999   16.910411605800000    0.122637599706650    0.008451759815216    0.206738695502281
152    8.712189954599999    9.134210391500000   15.054023835200001   -0.093504391610622   -0.022973462939262   -0.124742016196251
160    9.928480344900001   10.472344887900000   16.765937393600002    0.093498520553112    0.022963270545006    0.124742589890957
74    2.809254619699999    2.831604665700000   18.561644792599999   -0.017849316820502    0.065392374992371    0.000002925749868
98    3.714923951199999    3.936826339400000   20.357352191600000    0.093485794961452    0.023081339895725   -0.124829173088074
114    3.656442017100000    0.695810490500000   18.561644792599999    0.022868616506457   -0.070352375507355   -0.000036388635635
178    0.549663671100000    2.571948633400000   18.561644792599999    0.022877577692270    0.070387169718742   -0.000097549986094
10    5.916293922700000    3.853439467000000   20.212877979400002    0.122684106230736   -0.008393511176109   -0.206690579652786
82    5.916033189399998    0.436154327500000   18.561644792599999   -0.017807155847549   -0.065397679805756    0.000003909692168
182    6.763220400299998    2.571948633400000   18.561644792599999    0.022865893319249    0.070355691015720   -0.000011719530448
14   12.129850316399997    3.853439467000000   20.212877979400002    0.122454084455967   -0.008243724703789   -0.207258254289627
78    9.022811199800000    2.831604665700000   18.561644792599999   -0.017814688384533    0.065396688878536   -0.000008231960237
86   12.129589583100000    0.436154327500000   18.561644792599999   -0.017780285328627   -0.065325684845448    0.000048150403018
102    9.928480344900001    3.936826339400000   20.357352191600000    0.093149013817310    0.023053810000420   -0.124853760004044
118    9.869998783600000    0.695810490500000   18.561644792599999    0.022875614464283   -0.070341140031815   -0.000012243166566
2    2.809515539400000    5.949837787100000   20.212877979400002    0.122238434851170    0.008427679538727   -0.206826627254486
116    3.656442017100000    7.231328999700000   18.561644792599999    0.022798955440521   -0.070425964891911    0.000090698042186
162    0.608145655000000    5.866450914700000   20.357352191600000    0.094681888818741   -0.024238169193268   -0.126255333423615
84    5.916033189399998    6.971672392300000   18.561644792599999   -0.017772059887648   -0.065437085926533    0.000057952685893
166    6.821702707300000    5.866450914700000   20.357352191600000    0.093456082046032   -0.022864304482937   -0.124588474631310
6    9.023071933099999    5.949837787100000   20.212877979400002    0.123134531080723    0.008777767419815   -0.206119984388351
88   12.129589583100000    6.971672392300000   18.561644792599999   -0.017793096601963   -0.065490499138832    0.000024600751203
120    9.869998783600000    7.231328999700000   18.561644792599999    0.022969724610448   -0.070294469594955   -0.000090521760285
4    2.809515539400000   12.485355956499999   20.212877979400002    0.122626863420010    0.008478358387947   -0.206694930791855
76    2.809254619699999    9.367123031200000   18.561644792599999   -0.017773156985641    0.065388940274715    0.000023121945560
100    3.714923951199999   10.472344887900000   20.357352191600000    0.093274682760239    0.022713378071785   -0.124513335525990
164    0.608145655000000   12.401968705000000   20.357352191600000    0.093403056263924   -0.023271746933460   -0.124793142080307
180    0.549663671100000    9.107466423800000   18.561644792599999    0.022803846746683    0.070394702255726    0.000106094405055
12    5.916293922700000   10.388957636400002   20.212877979400002    0.122674062848091   -0.008456140756607   -0.206725925207138
168    6.821702707300000   12.401968705000000   20.357352191600000    0.093477539718151   -0.022959612309933   -0.124775767326355
184    6.763220400299998    9.107466423800000   18.561644792599999    0.022866822779179    0.070363909006119   -0.000014042248949
8    9.023071933099999   12.485355956499999   20.212877979400002    0.122637860476971    0.008451968431473   -0.206723794341087
16   12.129850316399997   10.388957636400002   20.212877979400002    0.122428096830845   -0.007939159870148   -0.207188665866852
80    9.022811199800000    9.367123031200000   18.561644792599999   -0.017758706584573    0.065397515892982    0.000025726854801
104    9.928480344900001   10.472344887900000   20.357352191600000    0.093965977430344    0.022901542484760   -0.124783657491207
