ITEM: TIMESTEP
0
ITEM: NUMBER OF ATOMS
192
ITEM: BOX BOUNDS xy xz yz pp pp pp
0.0000000000000000e+00 1.2427113533000000e+01 0.0000000000000000e+00
0.0000000000000000e+00 1.3071036338800001e+01 0.0000000000000000e+00
0.0000000000000000e+00 2.1213308334400001e+01 0.0000000000000000e+00
ITEM: ATOMS id xu yu zu fx fy fz
17    0.297262781700000    2.682078702400000    1.000430206500000   -0.122648909687996    0.008546829223633    0.206723377108574
41    3.404041227099999    0.585680473800000    1.000430206500000   -0.122662492096424   -0.008481994271278    0.206653743982315
89    3.404301960299999    3.703913307600000    2.651663541800000    0.017846692353487   -0.065313510596752    0.000006055925041
137    2.498632815300000    2.598692026100000    0.855957012500000   -0.093518026173115   -0.022949703037739    0.124731071293354
21    6.510819237499998    2.682078702400000    1.000430206500000   -0.122719414532185    0.008528724312782    0.206664472818375
169    5.605411198500000    0.669067150100000    0.855957012500000   -0.093465842306614    0.022906862199306    0.124741151928902
185    5.663893132700000    3.963569536000000    2.651663541800000   -0.022892484441400   -0.070299193263054    0.000057369470596
45    9.617598366399999    0.585680473800000    1.000430206500000   -0.122684434056282   -0.008508026599884    0.206701904535294
93    9.617859099700000    3.703913307600000    2.651663541800000    0.017851168289781   -0.065392725169659   -0.000013509998098
141    8.712189954599999    2.598692026100000    0.855957012500000   -0.093409411609173   -0.022933669388294    0.124724097549915
173   11.818968337799999    0.669067150100000    0.855957012500000   -0.093503072857857    0.022938877344131    0.124734476208687
189   11.877449899200000    3.963569536000000    2.651663541800000   -0.022899672389030   -0.070352338254452   -0.000038652782678
43    3.404041227099999    7.121198551700000    1.000430206500000   -0.122673764824867   -0.008515581488609    0.206676572561264
65    0.297523738700000    6.099363946500000    2.651663541800000    0.017887011170387    0.065368793904781    0.000022239983082
121    2.557114749400000    5.839707718100000    2.651663541800000   -0.022891994565725    0.070311740040779   -0.000022115884349
69    6.511080716399999    6.099363946500000    2.651663541800000    0.017823535948992    0.065342940390110   -0.000003931112587
171    5.605411198500000    7.204585032000001    0.855957012500000   -0.093447171151638    0.023013070225716    0.124779932200909
47    9.617598366399999    7.121198551700000    1.000430206500000   -0.122597813606262   -0.008542582392693    0.206695467233658
125    8.770671515900000    5.839707718100000    2.651663541800000   -0.022903136909008    0.070328295230865   -0.000017680227757
175   11.818968337799999    7.204585032000001    0.855957012500000   -0.093529254198074    0.022960603237152    0.124719887971878
19    0.297262781700000    9.217596871800000    1.000430206500000   -0.122673258185387    0.008464366197586    0.206641718745232
67    0.297523738700000   12.634882115900002    2.651663541800000    0.017830099910498    0.065392583608627    0.000012101139873
91    3.404301960299999   10.239431477000000    2.651663541800000    0.017858313396573   -0.065395981073380    0.000043861233280
123    2.557114749400000   12.375225508500000    2.651663541800000   -0.022894483059645    0.070342622697353    0.000048225381761
139    2.498632815300000    9.134210391500000    0.855957012500000   -0.093504495918751   -0.022961407899857    0.124750524759293
23    6.510819237499998    9.217596871800000    1.000430206500000   -0.122757777571678    0.008479952812195    0.206728130578995
71    6.511080716399999   12.634882115900002    2.651663541800000    0.017782229930162    0.065418131649494   -0.000007895752788
187    5.663893132700000   10.499088084400002    2.651663541800000   -0.022896552458405   -0.070409335196018   -0.000009148381650
95    9.617859099700000   10.239431477000000    2.651663541800000    0.017842037603259   -0.065378651022911    0.000016870442778
127    8.770671515900000   12.375225508500000    2.651663541800000   -0.022856090217829    0.070294365286827   -0.000053246039897
143    8.712189954599999    9.134210391500000    0.855957012500000   -0.093462936580181   -0.022917933762074    0.124734804034233
191   11.877449899200000   10.499088084400002    2.651663541800000   -0.022958250716329   -0.070273429155350   -0.000056248765759
25    0.297262781700000    2.682078702400000    4.302896728600000   -0.122661262750626    0.008610382676125   -0.206650540232658
57    3.404041227099999    0.585680473800000    4.302896728600000   -0.122607499361038   -0.008469372987747   -0.206656754016876
145    2.498632815300000    2.598692026100000    4.447369986200000   -0.093316577374935   -0.022866480052471   -0.124644145369530
153    3.714923951199999    3.936826339400000    6.159283862799999    0.093869417905807    0.022147081792355    0.124748513102531
29    6.510819237499998    2.682078702400000    4.302896728600000   -0.122766785323620    0.008564591407776   -0.206683725118637
33    5.916293922700000    3.853439467000000    6.303757438599999    0.122395075857639   -0.008226230740547    0.206954509019852
105    5.605411198500000    0.669067150100000    4.447369986200000   -0.093566879630089    0.022995419800282   -0.124718122184277
37   12.129850316399997    3.853439467000000    6.303757438599999    0.122811272740364   -0.008248880505562    0.206761419773102
61    9.617598366399999    0.585680473800000    4.302896728600000   -0.122581645846367   -0.008519545197487   -0.206669613718987
109   11.818968337799999    0.669067150100000    4.447369986200000   -0.093526884913445    0.022936776280403   -0.124743670225143
149    8.712189954599999    2.598692026100000    4.447369986200000   -0.093452773988247   -0.022901169955730   -0.124739572405815
157    9.928480344900001    3.936826339400000    6.159283862799999    0.093497917056084    0.022922493517399    0.124839410185814
49    2.809515539400000    5.949837787100000    6.303757438599999    0.122401766479015    0.007595539093018    0.207176253199577
59    3.404041227099999    7.121198551700000    4.302896728600000   -0.122505947947502   -0.008198291063309   -0.207455813884735
129    0.608145655000000    5.866450914700000    6.159283862799999    0.092707104980946   -0.022993549704552    0.124441996216774
107    5.605411198500000    7.204585032000001    4.447369986200000   -0.093171469867229    0.022985622286797   -0.124991983175278
133    6.821702707300000    5.866450914700000    6.159283862799999    0.093662656843662   -0.023152649402618    0.124570533633232
53    9.023071933099999    5.949837787100000    6.303757438599999    0.122655943036079    0.008525744080544    0.206639274954796
63    9.617598366399999    7.121198551700000    4.302896728600000   -0.122638434171677   -0.008572444319725   -0.206617206335068
111   11.818968337799999    7.204585032000001    4.447369986200000   -0.093453548848629    0.022729910910130   -0.124597072601318
27    0.297262781700000    9.217596871800000    4.302896728600000   -0.122618392109871    0.008522853255272   -0.206512093544006
51    2.809515539400000   12.485355956499999    6.303757438599999    0.122641563415527    0.008224368095398    0.206490457057953
131    0.608145655000000   12.401968705000000    6.159283862799999    0.093427121639252   -0.023003458976746    0.124813869595528
147    2.498632815300000    9.134210391500000    4.447369986200000   -0.093365892767906   -0.022735670208931   -0.124778851866722
155    3.714923951199999   10.472344887900000    6.159283862799999    0.093558229506016    0.023284949362278    0.124313831329346
31    6.510819237499998    9.217596871800000    4.302896728600000   -0.122716836631298    0.008502423763275   -0.206720411777496
35    5.916293922700000   10.388957636400002    6.303757438599999    0.122686460614204   -0.008521676063538    0.206755399703979
135    6.821702707300000   12.401968705000000    6.159283862799999    0.093452639877796   -0.022905386984348    0.124793976545334
39   12.129850316399997   10.388957636400002    6.303757438599999    0.122598432004452   -0.008456856012344    0.206623911857605
55    9.023071933099999   12.485355956499999    6.303757438599999    0.122610107064247    0.008459657430649    0.206605002284050
151    8.712189954599999    9.134210391500000    4.447369986200000   -0.093433901667595   -0.022841542959213   -0.124691337347031
159    9.928480344900001   10.472344887900000    6.159283862799999    0.093517273664474    0.022844165563583    0.124722607433796
73    2.809254619699999    2.831604665700000    7.954990625400001   -0.018707897514105    0.065944589674473   -0.000810702797025
97    3.714923951199999    3.936826339400000    9.750697388000001    0.117370970547199   -0.009471751749516   -0.129106596112251
113    3.656442017100000    0.695810490500000    7.954990625400001    0.023150643333793   -0.069707676768303    0.000531547237188
177    0.549663671100000    2.571948633400000    7.954990625400001    0.023011531680822    0.070485822856426    0.000490812584758
9    5.916293922700000    3.853439467000000    9.606223812200000    0.123951107263565   -0.009050577878952   -0.206987336277962
81    5.916033189399998    0.436154327500000    7.954990625400001   -0.017779216170311   -0.065481878817081   -0.000030581373721
181    6.763220400299998    2.571948633400000    7.954990625400001    0.021940946578979    0.071098908782005    0.001115967519581
13   12.129850316399997    3.853439467000000    9.606223812200000    0.122938938438892   -0.009083420038223   -0.206489369273186
77    9.022811199800000    2.831604665700000    7.954990625400001   -0.017737165093422    0.065408751368523   -0.000005388632417
85   12.129589583100000    0.436154327500000    7.954990625400001   -0.017817547544837   -0.065416201949120   -0.000010305700926
101    9.928480344900001    3.936826339400000    9.750697388000001    0.093258790671825    0.022866994142532   -0.124557778239250
117    9.869998783600000    0.695810490500000    7.954990625400001    0.022995434701443   -0.070165552198887    0.000024617416784
1    2.809515539400000    5.939837787100000    9.606223812200000    0.115415006875992    0.063888937234879   -0.224242627620697
115    3.656442017100000    7.231328999700000    7.954990625400001    0.013456705957651   -0.086239621043205    0.019238887354732
161    0.608145655000000    5.866450914700000    9.750697388000001    0.093994624912739   -0.023320868611336   -0.125317752361298
83    5.916033189399998    6.971672392300000    7.954990625400001   -0.018194057047367   -0.065132185816765   -0.000371932052076
165    6.821702707300000    5.866450914700000    9.750697388000001    0.093099430203438   -0.024379469454288   -0.124624051153660
5    9.023071933099999    5.949837787100000    9.606223812200000    0.122872203588486    0.008610546588898   -0.206734180450439
87   12.129589583100000    6.971672392300000    7.954990625400001   -0.018587188795209   -0.065010264515877   -0.000686405517627
119    9.869998783600000    7.231328999700000    7.954990625400001    0.022951975464821   -0.070370443165302    0.000080214347690
3    2.809515539400000   12.485355956499999    9.606223812200000    0.122720897197723    0.008160680532455   -0.206411689519882
75    2.809254619699999    9.367123031200000    7.954990625400001   -0.017599139362574    0.064695239067078   -0.000054070726037
99    3.714923951199999   10.472344887900000    9.750697388000001    0.093317367136478    0.023767612874508   -0.123986311256886
163    0.608145655000000   12.401968705000000    9.750697388000001    0.093520373106003   -0.022999815642834   -0.124797575175762
179    0.549663671100000    9.107466423800000    7.954990625400001    0.021687630563974    0.070989690721035   -0.000159875024110
11    5.916293922700000   10.388957636400002    9.606223812200000    0.122690275311470   -0.008352264761925   -0.206877961754799
167    6.821702707300000   12.401968705000000    9.750697388000001    0.093383282423019   -0.022936664521694   -0.124758049845695
183    6.763220400299998    9.107466423800000    7.954990625400001    0.023383785039186    0.070881076157093    0.000073951901868
7    9.023071933099999   12.485355956499999    9.606223812200000    0.122659549117088    0.008557543158531   -0.206589668989182
15   12.129850316399997   10.388957636400002    9.606223812200000    0.122545525431633   -0.008358210325241   -0.206929907202721
79    9.022811199800000    9.367123031200000    7.954990625400001   -0.017879180610180    0.065392881631851    0.000000247266144
103    9.928480344900001   10.472344887900000    9.750697388000001    0.093652755022049    0.022821821272373   -0.124739825725555
18    0.297262781700000    2.682078702400000   11.607084522199999   -0.123091742396355    0.008098468184471    0.207129359245300
42    3.404041227099999    0.585680473800000   11.607084522199999   -0.122575953602791   -0.009592786431313    0.206906497478485
90    3.404301960299999    3.703913307600000   13.258317709000000    0.017843591049314   -0.065622471272945   -0.000320827646647
138    2.498632815300000    2.598692026100000   11.462611582800001   -0.098816744983196   -0.028842076659203    0.132739096879959
22    6.510819237499998    2.682078702400000   11.607084522199999   -0.122239075601101    0.008266001939774    0.206732839345932
170    5.605411198500000    0.669067150100000   11.462611582800001   -0.093749880790710    0.023402817547321    0.124459117650986
186    5.663893132700000    3.963569536000000   13.258317709000000   -0.023131357505918   -0.070235043764114   -0.000397045630962
46    9.617598366399999    0.585680473800000   11.607084522199999   -0.122727870941162   -0.008482992649078    0.206683546304703
94    9.617859099700000    3.703913307600000   13.258317709000000    0.017728196457028   -0.065432250499725   -0.000112668611109
142    8.712189954599999    2.598692026100000   11.462611582800001   -0.093574024736881   -0.022583872079849    0.124272517859936
174   11.818968337799999    0.669067150100000   11.462611582800001   -0.093250147998333    0.023361049592495    0.124717280268669
190   11.877449899200000    3.963569536000000   13.258317709000000   -0.022687215358019   -0.070419713854790   -0.000321239233017
44    3.404041227099999    7.121198551700000   11.607084522199999   -0.125226378440857   -0.012020260095596    0.201408073306084
66    0.297523738700000    6.099363946500000   13.258317709000000    0.017716236412525    0.065434291958809   -0.000037493184209
122    2.557114749400000    5.839707718100000   13.258317709000000   -0.023064000532031    0.069534942507744   -0.000851180113386
70    6.511080716399999    6.099363946500000   13.258317709000000    0.017874244600534    0.065115988254547    0.000453382730484
172    5.605411198500000    7.204585032000001   11.462611582800001   -0.090522915124893    0.023720800876617    0.125569269061089
48    9.617598366399999    7.121198551700000   11.607084522199999   -0.122558742761612   -0.008496940135956    0.206684172153473
126    8.770671515900000    5.839707718100000   13.258317709000000   -0.022968271747231    0.070396892726421   -0.000010618008673
176   11.818968337799999    7.204585032000001   11.462611582800001   -0.094475612044334    0.023177899420261    0.125355213880539
20    0.297262781700000    9.217596871800000   11.607084522199999   -0.122027359902859    0.008029922842979    0.206805929541588
68    0.297523738700000   12.634882115900002   13.258317709000000    0.017778236418962    0.065367743372917    0.000024777371436
92    3.404301960299999   10.239431477000000   13.258317709000000    0.017687298357487   -0.065915614366531   -0.000410187378293
124    2.557114749400000   12.375225508500000   13.258317709000000   -0.022895060479641    0.070496745407581    0.000013523097550
140    2.498632815300000    9.134210391500000   11.462611582800001   -0.093480095267296   -0.019436359405518    0.125153735280037
24    6.510819237499998    9.217596871800000   11.607084522199999   -0.122963443398476    0.008251816034317    0.206812858581543
72    6.511080716399999   12.634882115900002   13.258317709000000    0.017783571034670    0.065395429730415    0.000004293397069
188    5.663893132700000   10.499088084400002   13.258317709000000   -0.022771429270506   -0.070306330919266    0.000046408735216
96    9.617859099700000   10.239431477000000   13.258317709000000    0.017859274521470   -0.065397098660469    0.000002893153578
128    8.770671515900000   12.375225508500000   13.258317709000000   -0.022852141410112    0.070342838764191    0.000029889863072
144    8.712189954599999    9.134210391500000   11.462611582800001   -0.093601517379284   -0.022998452186584    0.124736413359642
192   11.877449899200000   10.499088084400002   13.258317709000000   -0.022958653047681   -0.070252053439617    0.000150560168549
26    0.297262781700000    2.682078702400000   14.909550895800001   -0.122547045350075    0.008398532867432   -0.206728130578995
58    3.404041227099999    0.585680473800000   14.909550895800001   -0.122649908065796   -0.008373051881790   -0.206818699836731
146    2.498632815300000    2.598692026100000   15.054023835200001   -0.093615017831326   -0.023069776594639   -0.124826870858669
154    3.714923951199999    3.936826339400000   16.765937393600002    0.093491360545158    0.022994711995125    0.124684110283852
30    6.510819237499998    2.682078702400000   14.909550895800001   -0.122618936002254    0.008405610918999   -0.206717938184738
34    5.916293922700000    3.853439467000000   16.910411605800000    0.122646749019623   -0.008453011512756    0.206712305545807
106    5.605411198500000    0.669067150100000   15.054023835200001   -0.093517817556858    0.022979483008385   -0.124754585325718
38   12.129850316399997    3.853439467000000   16.910411605800000    0.122659750282764   -0.008462980389595    0.206726312637329
62    9.617598366399999    0.585680473800000   14.909550895800001   -0.122629642486572   -0.008460760116577   -0.206704467535019
110   11.818968337799999    0.669067150100000   15.054023835200001   -0.093473710119724    0.022997684776783   -0.124778084456921
150    8.712189954599999    2.598692026100000   15.054023835200001   -0.093536138534546   -0.023000679910183   -0.124729990959167
158    9.928480344900001    3.936826339400000   16.765937393600002    0.093505904078484    0.022991456091404    0.124767325818539
50    2.809515539400000    5.949837787100000   16.910411605800000    0.122665844857693    0.008494302630424    0.206710159778595
60    3.404041227099999    7.121198551700000   14.909550895800001   -0.122475393116474   -0.008102923631668   -0.206060588359833
130    0.608145655000000    5.866450914700000   16.765937393600002    0.093546584248543   -0.022955007851124    0.124722756445408
108    5.605411198500000    7.204585032000001   15.054023835200001   -0.093480773270130    0.022934935986996   -0.124678507447243
134    6.821702707300000    5.866450914700000   16.765937393600002    0.093474432826042   -0.022909924387932    0.124700181186199
54    9.023071933099999    5.949837787100000   16.910411605800000    0.122641406953335    0.008458495140076    0.206735104322433
64    9.617598366399999    7.121198551700000   14.909550895800001   -0.122624970972538   -0.008459910750389   -0.206745624542236
112   11.818968337799999    7.204585032000001   15.054023835200001   -0.093523934483528    0.022959128022194   -0.124762997031212
28    0.297262781700000    9.217596871800000   14.909550895800001   -0.122687429189682    0.008523106575012   -0.206702888011932
52    2.809515539400000   12.485355956499999   16.910411605800000    0.122632183134556    0.008446767926216    0.206748485565186
132    0.608145655000000   12.401968705000000   16.765937393600002    0.093504145741463   -0.022981271147728    0.124742597341537
148    2.498632815300000    9.134210391500000   15.054023835200001   -0.093453131616116   -0.022985674440861   -0.124454990029335
156    3.714923951199999   10.472344887900000   16.765937393600002    0.093471743166447    0.022903464734554    0.124700322747231
32    6.510819237499998    9.217596871800000   14.909550895800001   -0.122597761452198    0.008486077189445   -0.206625342369080
36    5.916293922700000   10.388957636400002   16.910411605800000    0.122635431587696   -0.008456155657768    0.206718146800995
136    6.821702707300000   12.401968705000000   16.765937393600002    0.093508951365948   -0.022974357008934    0.124752834439278
40   12.129850316399997   10.388957636400002   16.910411605800000    0.122639656066895   -0.008450880646706    0.206717044115067
56    9.023071933099999   12.485355956499999   16.910411605800000    0.122634589672089    0.008451953530312    0.206735223531723
152    8.712189954599999    9.134210391500000   15.054023835200001   -0.093490943312645   -0.022961452603340   -0.124722093343735
160    9.928480344900001   10.472344887900000   16.765937393600002    0.093511417508125    0.022963128983974    0.124740548431873
74    2.809254619699999    2.831604665700000   18.561644792599999   -0.017800951376557    0.065402179956436   -0.000000198371708
98    3.714923951199999    3.936826339400000   20.357352191600000    0.093518301844597    0.022967353463173   -0.124797798693180
114    3.656442017100000    0.695810490500000   18.561644792599999    0.022868867963552   -0.070352554321289   -0.000018152408302
178    0.549663671100000    2.571948633400000   18.561644792599999    0.022867532446980    0.070353865623474   -0.000024138716981
10    5.916293922700000    3.853439467000000   20.212877979400002    0.122629344463348   -0.008452609181404   -0.206710025668144
82    5.916033189399998    0.436154327500000   18.561644792599999   -0.017806451767683   -0.065397463738918    0.000001261010766
182    6.763220400299998    2.571948633400000   18.561644792599999    0.022875629365444    0.070349574089050    0.000001472188160
14   12.129850316399997    3.853439467000000   20.212877979400002    0.122633144259453   -0.008477106690407   -0.206718713045120
78    9.022811199800000    2.831604665700000   18.561644792599999   -0.017805306240916    0.065395966172218   -0.000007208902389
86   12.129589583100000    0.436154327500000   18.561644792599999   -0.017804417759180   -0.065403535962105    0.000004824345524
102    9.928480344900001    3.936826339400000   20.357352191600000    0.093486160039902    0.022955618798733   -0.124768279492855
118    9.869998783600000    0.695810490500000   18.561644792599999    0.022866606712341   -0.070356696844101   -0.000016338191926
2    2.809515539400000    5.949837787100000   20.212877979400002    0.122638404369354    0.008464857935905   -0.206715449690819
116    3.656442017100000    7.231328999700000   18.561644792599999    0.022871099412441   -0.070348568260670   -0.000040131806600
162    0.608145655000000    5.866450914700000   20.357352191600000    0.093497231602669   -0.022946678102016   -0.124773509800434
84    5.916033189399998    6.971672392300000   18.561644792599999   -0.017803544178605   -0.065398827195168   -0.000011237133549
166    6.821702707300000    5.866450914700000   20.357352191600000    0.093505471944809   -0.022995457053185   -0.124796703457832
6    9.023071933099999    5.949837787100000   20.212877979400002    0.122629731893539    0.008456930518150   -0.206721663475037
88   12.129589583100000    6.971672392300000   18.561644792599999   -0.017806358635426   -0.065394103527069   -0.000004997611541
120    9.869998783600000    7.231328999700000   18.561644792599999    0.022864222526550   -0.070360735058784   -0.000032758340240
4    2.809515539400000   12.485355956499999   20.212877979400002    0.122630491852760    0.008451923727989   -0.206710427999496
76    2.809254619699999    9.367123031200000   18.561644792599999   -0.017801102250814    0.065398499369621    0.000006646849215
100    3.714923951199999   10.472344887900000   20.357352191600000    0.093525871634483    0.022986240684986   -0.124823585152626
164    0.608145655000000   12.401968705000000   20.357352191600000    0.093513555824757   -0.022994741797447   -0.124814197421074
180    0.549663671100000    9.107466423800000   18.561644792599999    0.022871062159538    0.070350773632526   -0.000026718014851
12    5.916293922700000   10.388957636400002   20.212877979400002    0.122627444565296   -0.008458390831947   -0.206718355417252
168    6.821702707300000   12.401968705000000   20.357352191600000    0.093494050204754   -0.022975258529186   -0.124791584908962
184    6.763220400299998    9.107466423800000   18.561644792599999    0.022854192182422    0.070366643369198   -0.000012258300558
8    9.023071933099999   12.485355956499999   20.212877979400002    0.122642368078232    0.008453905582428   -0.206722706556320
16   12.129850316399997   10.388957636400002   20.212877979400002    0.122638389468193   -0.008457317948341   -0.206708312034607
80    9.022811199800000    9.367123031200000   18.561644792599999   -0.017792901024222    0.065397098660469   -0.000000333413482
104    9.928480344900001   10.472344887900000   20.357352191600000    0.093516126275063    0.022982813417912   -0.124802276492119
