ITEM: TIMESTEP
0
ITEM: NUMBER OF ATOMS
192
ITEM: BOX BOUNDS xy xz yz pp pp pp
0.0000000000000000e+00 1.2427113533000000e+01 0.0000000000000000e+00
0.0000000000000000e+00 1.3071036338800001e+01 0.0000000000000000e+00
0.0000000000000000e+00 2.1213308334400001e+01 0.0000000000000000e+00
ITEM: ATOMS id xu yu zu fx fy fz
17    0.297262781700000    2.682078702400000    1.000430206500000   -0.122544534504414    0.008330047130585    0.205983996391296
41    3.404041227099999    0.585680473800000    1.000430206500000   -0.122728213667870   -0.008414924144745    0.206611245870590
89    3.404301960299999    3.703913307600000    2.651663541800000    0.016375256702304   -0.062428828328848    0.000006426125765
137    2.498632815300000    2.598692026100000    0.855957012500000   -0.093473866581917   -0.023484028875828    0.124300912022591
21    6.510819237499998    2.682078702400000    1.000430206500000   -0.122792169451714    0.008593976497650    0.206782236695290
169    5.605411198500000    0.669067150100000    0.855957012500000   -0.093434773385525    0.022945418953896    0.124744355678558
185    5.663893132700000    3.963569536000000    2.651663541800000   -0.022219246253371   -0.070657566189766    0.000030903145671
45    9.617598366399999    0.585680473800000    1.000430206500000   -0.122697278857231   -0.008516088128090    0.206678569316864
93    9.617859099700000    3.703913307600000    2.651663541800000    0.016388397663832   -0.065874047577381    0.000000534113497
141    8.712189954599999    2.598692026100000    0.855957012500000   -0.093339353799820   -0.022845543920994    0.124773442745209
173   11.818968337799999    0.669067150100000    0.855957012500000   -0.093540646135807    0.022934429347515    0.124793767929077
189   11.877449899200000    3.963569536000000    2.651663541800000   -0.026208357885480   -0.077472150325775   -0.000020449151634
43    3.404041227099999    7.121198551700000    1.000430206500000   -0.122194536030293   -0.008920073509216    0.208295136690140
65    0.287523738700000    6.099363946500000    2.651663541800000    0.051307365298271    0.062927603721619   -0.000004407018423
121    2.557114749400000    5.839707718100000    2.651663541800000   -0.043859638273716    0.073740318417549   -0.000019406434149
69    6.511080716399999    6.099363946500000    2.651663541800000    0.017863620072603    0.065309464931488    0.000004608184099
171    5.605411198500000    7.204585032000001    0.855957012500000   -0.093520298600197    0.023001313209534    0.124533019959927
47    9.617598366399999    7.121198551700000    1.000430206500000   -0.122981548309326   -0.009298011660576    0.207259923219681
125    8.770671515900000    5.839707718100000    2.651663541800000   -0.023978900164366    0.070233523845673   -0.000023606698960
175   11.818968337799999    7.204585032000001    0.855957012500000   -0.097769409418106    0.027438953518867    0.119005002081394
19    0.297262781700000    9.217596871800000    1.000430206500000   -0.122581265866756    0.009366676211357    0.206616386771202
67    0.297523738700000   12.634882115900002    2.651663541800000    0.017874713987112    0.065506853163242    0.000007780268788
91    3.404301960299999   10.239431477000000    2.651663541800000    0.017896991223097   -0.065214782953262    0.000009629240594
123    2.557114749400000   12.375225508500000    2.651663541800000   -0.022902503609657    0.070330895483494    0.000054247979278
139    2.498632815300000    9.134210391500000    0.855957012500000   -0.093796730041504   -0.023447453975677    0.124864354729652
23    6.510819237499998    9.217596871800000    1.000430206500000   -0.122896581888199    0.008435189723969    0.206730067729950
71    6.511080716399999   12.634882115900002    2.651663541800000    0.017793176695704    0.065418101847172   -0.000011110678315
187    5.663893132700000   10.499088084400002    2.651663541800000   -0.022884570062160   -0.070364005863667   -0.000008041504771
95    9.617859099700000   10.239431477000000    2.651663541800000    0.017869397997856   -0.065407626330853    0.000015904195607
127    8.770671515900000   12.375225508500000    2.651663541800000   -0.022844221442938    0.070291392505169   -0.000054789241403
143    8.712189954599999    9.134210391500000    0.855957012500000   -0.093523964285851   -0.022675894200802    0.124729789793491
191   11.877449899200000   10.499088084400002    2.651663541800000   -0.023032533004880   -0.070477150380611   -0.000050884580560
25    0.297262781700000    2.682078702400000    4.302896728600000   -0.122616857290268    0.008313834667206   -0.205951035022736
57    3.404041227099999    0.585680473800000    4.302896728600000   -0.122653000056744   -0.008481949567795   -0.206669241189957
145    2.498632815300000    2.598692026100000    4.447369986200000   -0.093406513333321   -0.023451067507267   -0.124296858906746
153    3.714923951199999    3.936826339400000    6.159283862799999    0.093469522893429    0.022697977721691    0.124787904322147
29    6.510819237499998    2.682078702400000    4.302896728600000   -0.122784890234470    0.008593454957008   -0.206810742616653
33    5.916293922700000    3.853439467000000    6.303757438599999    0.122600048780441   -0.008437812328339    0.206644535064697
105    5.605411198500000    0.669067150100000    4.447369986200000   -0.093523800373077    0.022997923195362   -0.124764129519463
37   12.129850316399997    3.853439467000000    6.303757438599999    0.122576728463173   -0.008561417460442    0.206606552004814
61    9.617598366399999    0.585680473800000    4.302896728600000   -0.122598052024841   -0.008515879511833   -0.206648781895638
109   11.818968337799999    0.669067150100000    4.447369986200000   -0.093547478318214    0.022956490516663   -0.124814115464687
149    8.712189954599999    2.598692026100000    4.447369986200000   -0.093411892652512   -0.022810630500317   -0.124807827174664
157    9.928480344900001    3.936826339400000    6.159283862799999    0.093814045190811    0.022898845374584    0.124629244208336
49    2.809515539400000    5.949837787100000    6.303757438599999    0.122745722532272    0.008358612656593    0.207196146249771
59    3.404041227099999    7.121198551700000    4.302896728600000   -0.122157469391823   -0.008948966860771   -0.208252876996994
129    0.608145655000000    5.866450914700000    6.159283862799999    0.093967929482460   -0.024283677339554    0.126143723726273
107    5.605411198500000    7.204585032000001    4.447369986200000   -0.093562714755535    0.022942356765270   -0.124535195529461
133    6.821702707300000    5.866450914700000    6.159283862799999    0.093615189194679   -0.022817514836788    0.124675273895264
53    9.023071933099999    5.949837787100000    6.303757438599999    0.122976571321487    0.008614003658295    0.206305176019669
63    9.617598366399999    7.121198551700000    4.302896728600000   -0.123015627264977   -0.009315982460976   -0.207205250859261
111   11.818968337799999    7.204585032000001    4.447369986200000   -0.097815856337547    0.027346171438694   -0.119046673178673
27    0.297262781700000    9.217596871800000    4.302896728600000   -0.122557573020458    0.009440690279007   -0.206609830260277
51    2.809515539400000   12.485355956499999    6.303757438599999    0.122675582766533    0.008490160107613    0.206645309925079
131    0.608145655000000   12.401968705000000    6.159283862799999    0.093450047075748   -0.023029282689095    0.124809771776199
147    2.498632815300000    9.134210391500000    4.447369986200000   -0.093700580298901   -0.023386240005493   -0.124837726354599
155    3.714923951199999   10.472344887900000    6.159283862799999    0.093576349318027    0.023035548627377    0.124929249286652
31    6.510819237499998    9.217596871800000    4.302896728600000   -0.122856311500072    0.008462905883789   -0.206722423434258
35    5.916293922700000   10.388957636400002    6.303757438599999    0.122610352933407   -0.008562937378883    0.206615388393402
135    6.821702707300000   12.401968705000000    6.159283862799999    0.093448072671890   -0.022900626063347    0.124786585569382
39   12.129850316399997   10.388957636400002    6.303757438599999    0.122656546533108   -0.008331924676895    0.206572294235229
55    9.023071933099999   12.485355956499999    6.303757438599999    0.122610375285149    0.008446291089058    0.206600949168205
151    8.712189954599999    9.134210391500000    4.447369986200000   -0.093506291508675   -0.022607922554016   -0.124701470136642
159    9.928480344900001   10.472344887900000    6.159283862799999    0.093639262020588    0.022731401026249    0.124651283025742
73    2.809254619699999    2.831604665700000    7.954990625400001   -0.017715938389301    0.065433032810688   -0.000031187199056
97    3.714923951199999    3.936826339400000    9.750697388000001    0.093509390950203    0.022987961769104   -0.124777138233185
113    3.656442017100000    0.695810490500000    7.954990625400001    0.022958138957620   -0.070244215428829    0.000024143839255
177    0.549663671100000    2.571948633400000    7.954990625400001    0.022818118333817    0.070389665663242   -0.000128615880385
9    5.916293922700000    3.853439467000000    9.606223812200000    0.122618287801743   -0.008493900299072   -0.206663429737091
81    5.916033189399998    0.436154327500000    7.954990625400001   -0.017836298793554   -0.065399207174778   -0.000016962178051
181    6.763220400299998    2.571948633400000    7.954990625400001    0.022896116599441    0.070309989154339    0.000004388624802
13   12.129850316399997    3.853439467000000    9.606223812200000    0.122634083032608   -0.008487746119499   -0.206589102745056
77    9.022811199800000    2.831604665700000    7.954990625400001   -0.017762886360288    0.065431311726570   -0.000050284434110
85   12.129589583100000    0.436154327500000    7.954990625400001   -0.017817027866840   -0.065423876047134    0.000012127999980
101    9.928480344900001    3.936826339400000    9.750697388000001    0.093530438840389    0.022973768413067   -0.124804839491844
117    9.869998783600000    0.695810490500000    7.954990625400001    0.022965278476477   -0.070175178349018    0.000028309877962
1    2.809515539400000    5.949837787100000    9.606223812200000    0.122734203934669    0.008468866348267   -0.206738054752350
115    3.656442017100000    7.231328999700000    7.954990625400001    0.022938892245293   -0.070250250399113    0.000103209633380
161    0.608145655000000    5.866450914700000    9.750697388000001    0.093443393707275   -0.022967085242271   -0.124770537018776
83    5.916033189399998    6.971672392300000    7.954990625400001   -0.017842097207904   -0.065423972904682   -0.000097946729511
165    6.821702707300000    5.866450914700000    9.750697388000001    0.093496248126030   -0.022934272885323   -0.124753661453724
5    9.023071933099999    5.949837787100000    9.606223812200000    0.122662015259266    0.008506178855896   -0.206735700368881
87   12.129589583100000    6.971672392300000    7.954990625400001   -0.017863111570477   -0.065421245992184    0.000069813984737
119    9.869998783600000    7.231328999700000    7.954990625400001    0.022960605099797   -0.070307858288288   -0.000026714988053
3    2.809515539400000   12.485355956499999    9.606223812200000    0.122638806700706    0.008502081036568   -0.206627815961838
75    2.809254619699999    9.367123031200000    7.954990625400001   -0.017762316390872    0.065373092889786    0.000002337619662
99    3.714923951199999   10.472344887900000    9.750697388000001    0.093490451574326    0.022881083190441   -0.124720178544521
163    0.608145655000000   12.401968705000000    9.750697388000001    0.093471862375736   -0.022873908281326   -0.124754138290882
179    0.549663671100000    9.107466423800000    7.954990625400001    0.022935543209314    0.070226229727268   -0.000059444690123
11    5.916293922700000   10.388957636400002    9.606223812200000    0.122645109891891   -0.008512765169144   -0.206679672002792
167    6.821702707300000   12.401968705000000    9.750697388000001    0.093431122601032   -0.022965587675571   -0.124766722321510
183    6.763220400299998    9.107466423800000    7.954990625400001    0.022912532091141    0.070303156971931    0.000022751744837
7    9.023071933099999   12.485355956499999    9.606223812200000    0.122657276690006    0.008549079298973   -0.206607282161713
15   12.129850316399997   10.388957636400002    9.606223812200000    0.122657924890518   -0.008506923913956   -0.206618621945381
79    9.022811199800000    9.367123031200000    7.954990625400001   -0.017792522907257    0.065385490655899   -0.000021050684154
103    9.928480344900001   10.472344887900000    9.750697388000001    0.093450307846069    0.022821493446827   -0.124716654419899
18    0.297262781700000    2.682078702400000   11.607084522199999   -0.122706562280655    0.008551195263863    0.206643968820572
42    3.404041227099999    0.585680473800000   11.607084522199999   -0.122698925435543   -0.008535683155060    0.206708639860153
90    3.404301960299999    3.703913307600000   13.258317709000000    0.017816592007875   -0.065374806523323   -0.000008778933989
138    2.498632815300000    2.598692026100000   11.462611582800001   -0.093443587422371   -0.022911526262760    0.124775096774101
22    6.510819237499998    2.682078702400000   11.607084522199999   -0.122693389654160    0.008460417389870    0.206664338707924
170    5.605411198500000    0.669067150100000   11.462611582800001   -0.093431085348129    0.022971346974373    0.124787412583828
186    5.663893132700000    3.963569536000000   13.258317709000000   -0.022910138592124   -0.070303268730640    0.000026999507099
46    9.617598366399999    0.585680473800000   11.607084522199999   -0.122708663344383   -0.008533746004105    0.206704109907150
94    9.617859099700000    3.703913307600000   13.258317709000000    0.017799995839596   -0.065372779965401    0.000017277430743
142    8.712189954599999    2.598692026100000   11.462611582800001   -0.093480907380581   -0.022964060306549    0.124786064028740
174   11.818968337799999    0.669067150100000   11.462611582800001   -0.093436948955059    0.022900670766830    0.124771021306515
190   11.877449899200000    3.963569536000000   13.258317709000000   -0.022877804934978   -0.070315569639206    0.000018744729459
44    3.404041227099999    7.121198551700000   11.607084522199999   -0.122675634920597   -0.008486166596413    0.206698000431061
66    0.297523738700000    6.099363946500000   13.258317709000000    0.017839439213276    0.065399140119553    0.000005378387868
122    2.557114749400000    5.839707718100000   13.258317709000000   -0.022893771529198    0.070342987775803    0.000035302509787
70    6.511080716399999    6.099363946500000   13.258317709000000    0.017807997763157    0.065414011478424   -0.000002328306437
172    5.605411198500000    7.204585032000001   11.462611582800001   -0.093430593609810    0.022966451942921    0.124785616993904
48    9.617598366399999    7.121198551700000   11.607084522199999   -0.122631281614304   -0.008462056517601    0.206720739603043
126    8.770671515900000    5.839707718100000   13.258317709000000   -0.022863322868943    0.070367753505707    0.000013988930732
176   11.818968337799999    7.204585032000001   11.462611582800001   -0.093519344925880    0.022986344993114    0.124786205589771
20    0.297262781700000    9.217596871800000   11.607084522199999   -0.122632205486298    0.008451238274574    0.206728473305702
68    0.297523738700000   12.634882115900002   13.258317709000000    0.017804939299822    0.065391093492508    0.000007669441402
92    3.404301960299999   10.239431477000000   13.258317709000000    0.017815414816141   -0.065396517515182    0.000000322812014
124    2.557114749400000   12.375225508500000   13.258317709000000   -0.022874189540744    0.070342160761356    0.000034054566640
140    2.498632815300000    9.134210391500000   11.462611582800001   -0.093500904738903   -0.022896379232407    0.124741755425930
24    6.510819237499998    9.217596871800000   11.607084522199999   -0.122637137770653    0.008465200662613    0.206735283136368
72    6.511080716399999   12.634882115900002   13.258317709000000    0.017813483253121    0.065393850207329    0.000017155893147
188    5.663893132700000   10.499088084400002   13.258317709000000   -0.022871462628245   -0.070367977023125    0.000007914379239
96    9.617859099700000   10.239431477000000   13.258317709000000    0.017812987789512   -0.065394528210163    0.000006556743756
128    8.770671515900000   12.375225508500000   13.258317709000000   -0.022863283753395    0.070351965725422    0.000020954752472
144    8.712189954599999    9.134210391500000   11.462611582800001   -0.093493044376373   -0.022947698831558    0.124758481979370
192   11.877449899200000   10.499088084400002   13.258317709000000   -0.022870667278767   -0.070365555584431    0.000010273884982
26    0.297262781700000    2.682078702400000   14.909550895800001   -0.122612893581390    0.008415818214417   -0.206684380769730
58    3.404041227099999    0.585680473800000   14.909550895800001   -0.122636154294014   -0.008449763059616   -0.206722289323807
146    2.498632815300000    2.598692026100000   15.054023835200001   -0.093542791903019   -0.022994875907898   -0.124741241335869
154    3.714923951199999    3.936826339400000   16.765937393600002    0.093497216701508    0.022970393300056    0.124773204326630
30    6.510819237499998    2.682078702400000   14.909550895800001   -0.122607588768005    0.008409276604652   -0.206677973270416
34    5.916293922700000    3.853439467000000   16.910411605800000    0.122635811567307   -0.008460015058517    0.206714212894440
106    5.605411198500000    0.669067150100000   15.054023835200001   -0.093500673770905    0.022991530597210   -0.124748513102531
38   12.129850316399997    3.853439467000000   16.910411605800000    0.122647777199745   -0.008464679121971    0.206707507371902
62    9.617598366399999    0.585680473800000   14.909550895800001   -0.122640296816826   -0.008447393774986   -0.206719294190407
110   11.818968337799999    0.669067150100000   15.054023835200001   -0.093501657247543    0.022990927100182   -0.124741718173027
150    8.712189954599999    2.598692026100000   15.054023835200001   -0.093545079231262   -0.023003987967968   -0.124746464192867
158    9.928480344900001    3.936826339400000   16.765937393600002    0.093490377068520    0.022988170385361    0.124776348471642
50    2.809515539400000    5.949837787100000   16.910411605800000    0.122672684490681    0.008485570549965    0.206814706325531
60    3.404041227099999    7.121198551700000   14.909550895800001   -0.122634984552860   -0.008443519473076   -0.206715583801270
130    0.608145655000000    5.866450914700000   16.765937393600002    0.093520343303680   -0.022960759699345    0.124780118465424
108    5.605411198500000    7.204585032000001   15.054023835200001   -0.093509711325169    0.022975757718086   -0.124747246503830
134    6.821702707300000    5.866450914700000   16.765937393600002    0.093520171940327   -0.022969000041485    0.124762356281281
54    9.023071933099999    5.949837787100000   16.910411605800000    0.122648671269417    0.008464306592941    0.206790536642075
64    9.617598366399999    7.121198551700000   14.909550895800001   -0.122633352875710   -0.008445262908936   -0.206721603870392
112   11.818968337799999    7.204585032000001   15.054023835200001   -0.093527138233185    0.022999338805676   -0.124759733676910
28    0.297262781700000    9.217596871800000   14.909550895800001   -0.122637152671814    0.008442759513855   -0.206725850701332
52    2.809515539400000   12.485355956499999   16.910411605800000    0.122634395956993    0.008454978466034    0.206741571426392
132    0.608145655000000   12.401968705000000   16.765937393600002    0.093505181372166   -0.022961214184761    0.124745801091194
148    2.498632815300000    9.134210391500000   15.054023835200001   -0.093503274023533   -0.022981874644756   -0.124747104942799
156    3.714923951199999   10.472344887900000   16.765937393600002    0.093506500124931    0.022970877587795    0.124747186899185
32    6.510819237499998    9.217596871800000   14.909550895800001   -0.122638203203678    0.008447244763374   -0.206734582781792
36    5.916293922700000   10.388957636400002   16.910411605800000    0.122636362910271   -0.008454293012619    0.206735283136368
136    6.821702707300000   12.401968705000000   16.765937393600002    0.093506924808025   -0.022976092994213    0.124752357602119
40   12.129850316399997   10.388957636400002   16.910411605800000    0.122633516788483   -0.008437320590019    0.206717938184738
56    9.023071933099999   12.485355956499999   16.910411605800000    0.122632309794426    0.008448794484138    0.206732720136642
152    8.712189954599999    9.134210391500000   15.054023835200001   -0.093504182994366   -0.022970005869865   -0.124742127954960
160    9.928480344900001   10.472344887900000   16.765937393600002    0.093493118882179    0.022958271205425    0.124736636877060
74    2.809254619699999    2.831604665700000   18.561644792599999   -0.017733862623572    0.065429002046585    0.000021695625037
98    3.714923951199999    3.936826339400000   20.357352191600000    0.093468844890594    0.022717103362083   -0.124821513891220
114    3.656442017100000    0.695810490500000   18.561644792599999    0.022860245779157   -0.070367731153965   -0.000012323725969
178    0.549663671100000    2.571948633400000   18.561644792599999    0.022814102470875    0.070458188652992    0.000095764873549
10    5.916293922700000    3.853439467000000   20.212877979400002    0.122614100575447   -0.008380591869354   -0.206676423549652
82    5.916033189399998    0.436154327500000   18.561644792599999   -0.017804307863116   -0.065398678183556    0.000001007691026
182    6.763220400299998    2.571948633400000   18.561644792599999    0.022898159921169    0.070349283516407   -0.000026827910915
14   12.129850316399997    3.853439467000000   20.212877979400002    0.122541069984436   -0.008507728576660   -0.206659674644470
78    9.022811199800000    2.831604665700000   18.561644792599999   -0.017786094918847    0.065429665148258    0.000032276380807
86   12.129589583100000    0.436154327500000   18.561644792599999   -0.017811764031649   -0.065429523587227   -0.000015348101442
102    9.928480344900001    3.936826339400000   20.357352191600000    0.093832977116108    0.022939413785934   -0.124631285667419
118    9.869998783600000    0.695810490500000   18.561644792599999    0.022863367572427   -0.070349298417568   -0.000019112601876
2    2.809515539400000    5.949837787100000   20.212877979400002    0.122699588537216    0.008347928524017   -0.207297503948212
116    3.656442017100000    7.231328999700000   18.561644792599999    0.022881438955665   -0.070308670401573   -0.000113177316962
162    0.608145655000000    5.866450914700000   20.357352191600000    0.093977630138397   -0.024281874299049   -0.126126423478127
84    5.916033189399998    6.971672392300000   18.561644792599999   -0.017838262021542   -0.065432496368885    0.000087890053692
166    6.821702707300000    5.866450914700000   20.357352191600000    0.093708872795105   -0.022868260741234   -0.124721847474575
6    9.023071933099999    5.949837787100000   20.212877979400002    0.122880235314369    0.008534207940102   -0.206378594040871
88   12.129589583100000    6.971672392300000   18.561644792599999   -0.017822137102485   -0.065407902002335   -0.000077846598288
120    9.869998783600000    7.231328999700000   18.561644792599999    0.022905062884092   -0.070349141955376    0.000008110888302
4    2.809515539400000   12.485355956499999   20.212877979400002    0.122662052512169    0.008426651358604   -0.206749007105827
76    2.809254619699999    9.367123031200000   18.561644792599999   -0.017735606059432    0.065348200500011    0.000007798429579
100    3.714923951199999   10.472344887900000   20.357352191600000    0.093628831207752    0.023170515894890   -0.125008136034012
164    0.608145655000000   12.401968705000000   20.357352191600000    0.093525692820549   -0.023078821599483   -0.124837607145309
180    0.549663671100000    9.107466423800000   18.561644792599999    0.022851129993796    0.070317476987839    0.000036806799471
12    5.916293922700000   10.388957636400002   20.212877979400002    0.122572645545006   -0.008505284786224   -0.206674426794052
168    6.821702707300000   12.401968705000000   20.357352191600000    0.093491569161415   -0.022968038916588   -0.124793767929077
184    6.763220400299998    9.107466423800000   18.561644792599999    0.022874962538481    0.070368282496929   -0.000019687693566
8    9.023071933099999   12.485355956499999   20.212877979400002    0.122636131942272    0.008423388004303   -0.206716582179070
16   12.129850316399997   10.388957636400002   20.212877979400002    0.122666157782078   -0.008343145251274   -0.206639289855957
80    9.022811199800000    9.367123031200000   18.561644792599999   -0.017772790044546    0.065387748181820    0.000013276468962
104    9.928480344900001   10.472344887900000   20.357352191600000    0.093672685325146    0.022865325212479   -0.124723464250565
