ITEM: TIMESTEP
0
ITEM: NUMBER OF ATOMS
192
ITEM: BOX BOUNDS xy xz yz pp pp pp
0.0000000000000000e+00 1.2427113533000000e+01 0.0000000000000000e+00
0.0000000000000000e+00 1.3071036338800001e+01 0.0000000000000000e+00
0.0000000000000000e+00 2.1213308334400001e+01 0.0000000000000000e+00
ITEM: ATOMS id xu yu zu fx fy fz
17    0.297262781700000    2.682078702400000    1.000430206500000   -0.122648678719997    0.008537277579308    0.206712186336517
41    3.404041227099999    0.585680473800000    1.000430206500000   -0.122663572430611   -0.008484959602356    0.206652790307999
89    3.404301960299999    3.703913307600000    2.651663541800000    0.017820082604885   -0.065292373299599    0.000135531183332
137    2.498632815300000    2.598692026100000    0.855957012500000   -0.093515858054161   -0.022956892848015    0.124732889235020
21    6.510819237499998    2.682078702400000    1.000430206500000   -0.122713372111320    0.008521586656570    0.206648588180542
169    5.605411198500000    0.669067150100000    0.855957012500000   -0.093471430242062    0.022900834679604    0.124733895063400
185    5.663893132700000    3.963569536000000    2.651663541800000   -0.022870704531670   -0.070330172777176    0.000060881488025
45    9.617598366399999    0.585680473800000    1.000430206500000   -0.122686751186848   -0.008506387472153    0.206712722778320
93    9.617859099700000    3.703913307600000    2.651663541800000    0.017847079783678   -0.065394446253777    0.000010845717043
141    8.712189954599999    2.598692026100000    0.855957012500000   -0.093403600156307   -0.022935338318348    0.124706335365772
173   11.818968337799999    0.669067150100000    0.855957012500000   -0.093507699668407    0.022941477596760    0.124728783965111
189   11.877449899200000    3.963569536000000    2.651663541800000   -0.022864656522870   -0.070393107831478   -0.000009294701158
43    3.404041227099999    7.121198551700000    1.000430206500000   -0.122678875923157   -0.008514344692230    0.206702947616577
65    0.297523738700000    6.099363946500000    2.651663541800000    0.017933012917638    0.065365150570869    0.000135218724608
121    2.557114749400000    5.839707718100000    2.651663541800000   -0.022876100614667    0.070370063185692    0.000092623289675
69    6.511080716399999    6.099363946500000    2.651663541800000    0.017859634011984    0.065349109470844   -0.000024077482522
171    5.605411198500000    7.204585032000001    0.855957012500000   -0.093443401157856    0.023012422025204    0.124774932861328
47    9.617598366399999    7.121198551700000    1.000430206500000   -0.122600317001343   -0.008545190095901    0.206697523593903
125    8.770671515900000    5.839707718100000    2.651663541800000   -0.022886492311954    0.070358663797379   -0.000011095311493
175   11.818968337799999    7.204585032000001    0.855957012500000   -0.093530409038067    0.022956341505051    0.124724008142948
19    0.297262781700000    9.217596871800000    1.000430206500000   -0.122677855193615    0.008471041917801    0.206647396087646
67    0.297523738700000   12.634882115900002    2.651663541800000    0.017832063138485    0.065388523042202    0.000005378387868
91    3.404301960299999   10.239431477000000    2.651663541800000    0.017852803692222   -0.065408647060394    0.000069655638072
123    2.557114749400000   12.375225508500000    2.651663541800000   -0.022879634052515    0.070362217724323    0.000062076011091
139    2.498632815300000    9.134210391500000    0.855957012500000   -0.093503013253212   -0.022960886359215    0.124743796885014
23    6.510819237499998    9.217596871800000    1.000430206500000   -0.122755363583565    0.008483737707138    0.206716209650040
71    6.511080716399999   12.634882115900002    2.651663541800000    0.017789419740438    0.065409883856773   -0.000014597550035
187    5.663893132700000   10.499088084400002    2.651663541800000   -0.022909848019481   -0.070389933884144   -0.000034829601645
95    9.617859099700000   10.239431477000000    2.651663541800000    0.017845541238785   -0.065374791622162    0.000011986587197
127    8.770671515900000   12.375225508500000    2.651663541800000   -0.022844664752483    0.070301689207554   -0.000034210737795
143    8.712189954599999    9.134210391500000    0.855957012500000   -0.093465916812420   -0.022917777299881    0.124735407531261
191   11.877449899200000   10.499088084400002    2.651663541800000   -0.022958870977163   -0.070294141769409   -0.000038211142964
25    0.297262781700000    2.682078702400000    4.302896728600000   -0.122725747525692    0.008566737174988   -0.206699609756470
57    3.404041227099999    0.585680473800000    4.302896728600000   -0.122575223445892   -0.008645415306091   -0.206749945878983
145    2.498632815300000    2.598692026100000    4.447369986200000   -0.093449927866459   -0.022882230579853   -0.124732285737991
153    3.714923951199999    3.936826339400000    6.159283862799999    0.093708686530590    0.021658502519131    0.125071033835411
29    6.510819237499998    2.682078702400000    4.302896728600000   -0.122612461447716    0.008473917841911   -0.206836000084877
33    5.916293922700000    3.853439467000000    6.303757438599999    0.116985522210598   -0.004439115524292    0.213124632835388
105    5.605411198500000    0.669067150100000    4.447369986200000   -0.093558937311172    0.022973380982876   -0.124823115766048
37   12.129850316399997    3.853439467000000    6.303757438599999    0.128418564796448   -0.004711911082268    0.213105633854866
61    9.617598366399999    0.585680473800000    4.302896728600000   -0.122635275125504   -0.008503288030624   -0.206684291362762
109   11.818968337799999    0.669067150100000    4.447369986200000   -0.093497030436993    0.022976145148277   -0.124782584607601
149    8.712189954599999    2.598692026100000    4.447369986200000   -0.093489810824394   -0.022913716733456   -0.124733686447144
157    9.928480344900001    3.936826339400000    6.159283862799999    0.093541324138641    0.022936373949051    0.124773696064949
49    2.809515539400000    5.949837787100000    6.303757438599999    0.123151034116745    0.009078472852707    0.206006795167923
59    3.404041227099999    7.121198551700000    4.302896728600000   -0.122376888990402   -0.007854521274567   -0.207843601703644
129    0.608145655000000    5.866450914700000    6.159283862799999    0.092074707150459   -0.023004241287708    0.124843709170818
107    5.605411198500000    7.204585032000001    4.447369986200000   -0.093300014734268    0.022874608635902   -0.124943025410175
133    6.821702707300000    5.866450914700000    6.159283862799999    0.093752190470695   -0.023248903453350    0.124440237879753
53    9.023071933099999    5.949837787100000    6.303757438599999    0.122620075941086    0.008490264415741    0.206689238548279
63    9.617598366399999    7.121198551700000    4.302896728600000   -0.122713021934032   -0.008485108613968   -0.206674605607986
111   11.818968337799999    7.204585032000001    4.447369986200000   -0.093451529741287    0.022900745272636   -0.124734245240688
27    0.297262781700000    9.217596871800000    4.302896728600000   -0.122709348797798    0.008505806326866   -0.206556826829910
51    2.809515539400000   12.485355956499999    6.303757438599999    0.122716531157494    0.008409187197685    0.206574425101280
131    0.608145655000000   12.401968705000000    6.159283862799999    0.093409240245819   -0.023055277764797    0.124810636043549
147    2.498632815300000    9.134210391500000    4.447369986200000   -0.093317247927189   -0.022852875292301   -0.124796576797962
155    3.714923951199999   10.472344887900000    6.159283862799999    0.093635544180870    0.023415781557560    0.124288350343704
31    6.510819237499998    9.217596871800000    4.302896728600000   -0.122667342424393    0.008591309189796   -0.206702023744583
35    5.916293922700000   10.388957636400002    6.303757438599999    0.122714139521122   -0.008490666747093    0.206842720508575
135    6.821702707300000   12.401968705000000    6.159283862799999    0.093415133655071   -0.023033335804939    0.124842517077923
39   12.129850316399997   10.388957636400002    6.303757438599999    0.122674755752087   -0.008590936660767    0.206781089305878
55    9.023071933099999   12.485355956499999    6.303757438599999    0.122677281498909    0.008537590503693    0.206633269786835
151    8.712189954599999    9.134210391500000    4.447369986200000   -0.093399085104465   -0.022948548197746   -0.124720148742199
159    9.928480344900001   10.472344887900000    6.159283862799999    0.093544431030750    0.022859185934067    0.124737113714218
73    2.809254619699999    2.831604665700000    7.954990625400001   -0.017761573195457    0.064289912581444   -0.000262049958110
97    3.714923951199999    3.936826339400000    9.750697388000001    0.092079162597656    0.026327915489674   -0.125386878848076
113    3.656442017100000    0.695810490500000    7.954990625400001    0.022895019501448   -0.069985240697861    0.000045737950131
177    0.549663671100000    2.571948633400000    7.954990625400001    0.023363158106804    0.070613019168377    0.000181911280379
9    5.916293922700000    3.853439467000000    9.606223812200000    0.123019464313984   -0.008327901363373   -0.206230640411377
81    5.916033189399998    0.436154327500000    7.954990625400001   -0.017765697091818   -0.065431937575340   -0.000017661135644
181    6.763220400299998    2.571948633400000    7.954990625400001    0.022823739796877    0.070282228291035   -0.000049530295655
13   12.129850316399997    3.853439467000000    9.606223812200000    0.122505858540535   -0.008861601352692   -0.206224739551544
77    9.022811199800000    2.831604665700000    7.954990625400001   -0.017754675820470    0.065416023135185    0.000001633539796
85   12.129589583100000    0.436154327500000    7.954990625400001   -0.017786869779229   -0.065374329686165   -0.000006163492799
101    9.928480344900001    3.936826339400000    9.750697388000001    0.093367323279381    0.022938348352909   -0.124766506254673
117    9.869998783600000    0.695810490500000    7.954990625400001    0.022926576435566   -0.070257194340229    0.000015817582607
1    2.809515539400000    5.949837787100000    9.616223812199999    0.133784845471382    0.016414672136307   -0.254313647747040
115    3.656442017100000    7.231328999700000    7.954990625400001    0.008609086275101   -0.092439733445644    0.031432949006557
161    0.608145655000000    5.866450914700000    9.750697388000001    0.097570337355137   -0.022391512989998   -0.125017270445824
83    5.916033189399998    6.971672392300000    7.954990625400001   -0.019439555704594   -0.065060645341873    0.000087087042630
165    6.821702707300000    5.866450914700000    9.750697388000001    0.092808581888676   -0.022601604461670   -0.123816467821598
5    9.023071933099999    5.949837787100000    9.606223812200000    0.122482277452946    0.008549258112907   -0.206586658954620
87   12.129589583100000    6.971672392300000    7.954990625400001   -0.018334792926908   -0.065338850021362    0.000209405785426
119    9.869998783600000    7.231328999700000    7.954990625400001    0.022929545491934   -0.070301838219166    0.000012858770788
3    2.809515539400000   12.485355956499999    9.606223812200000    0.122773252427578    0.008297577500343   -0.206532880663872
75    2.809254619699999    9.367123031200000    7.954990625400001   -0.017042605206370    0.063223727047443    0.000430428888649
99    3.714923951199999   10.472344887900000    9.750697388000001    0.093262329697609    0.021980799734592   -0.123760655522346
163    0.608145655000000   12.401968705000000    9.750697388000001    0.093326561152935   -0.022884115576744   -0.124711461365223
179    0.549663671100000    9.107466423800000    7.954990625400001    0.021930035203695    0.070626311004162    0.000105220824480
11    5.916293922700000   10.388957636400002    9.606223812200000    0.122629284858704   -0.008757501840591   -0.206520423293114
167    6.821702707300000   12.401968705000000    9.750697388000001    0.093457691371441   -0.022987335920334   -0.124753244221210
183    6.763220400299998    9.107466423800000    7.954990625400001    0.023563049733639    0.071107365190983   -0.000148089136928
7    9.023071933099999   12.485355956499999    9.606223812200000    0.122636348009109    0.008500084280968   -0.206666588783264
15   12.129850316399997   10.388957636400002    9.606223812200000    0.122851364314556   -0.008675664663315   -0.206559225916862
79    9.022811199800000    9.367123031200000    7.954990625400001   -0.017936652526259    0.065411239862442   -0.000030869618058
103    9.928480344900001   10.472344887900000    9.750697388000001    0.093466274440289    0.022906094789505   -0.124747216701508
18    0.297262781700000    2.682078702400000   11.607084522199999   -0.122956350445747    0.008605405688286    0.206473112106323
42    3.404041227099999    0.585680473800000   11.607084522199999   -0.122551597654819   -0.008752897381783    0.206743389368057
90    3.404301960299999    3.703913307600000   13.258317709000000    0.017779370769858   -0.064806431531906   -0.000424426514655
138    2.498632815300000    2.598692026100000   11.462611582800001   -0.093827456235886   -0.023452363908291    0.125282585620880
22    6.510819237499998    2.682078702400000   11.607084522199999   -0.122877076268196    0.008602380752563    0.206561431288719
170    5.605411198500000    0.669067150100000   11.462611582800001   -0.093535825610161    0.022923283278942    0.124790735542774
186    5.663893132700000    3.963569536000000   13.258317709000000   -0.023191997781396   -0.070240780711174   -0.000053151510656
46    9.617598366399999    0.585680473800000   11.607084522199999   -0.122722245752811   -0.008480414748192    0.206736534833908
94    9.617859099700000    3.703913307600000   13.258317709000000    0.017754809930921   -0.065400078892708    0.000000674743205
142    8.712189954599999    2.598692026100000   11.462611582800001   -0.093467392027378   -0.022937387228012    0.124764613807201
174   11.818968337799999    0.669067150100000   11.462611582800001   -0.093301251530647    0.023061662912369    0.124723918735981
190   11.877449899200000    3.963569536000000   13.258317709000000   -0.022747535258532   -0.070532046258450   -0.000117140822113
44    3.404041227099999    7.121198551700000   11.607084522199999   -0.118805691599846   -0.002466395497322    0.216472744941711
66    0.297523738700000    6.099363946500000   13.258317709000000    0.018447335809469    0.065291866660118   -0.000571385025978
122    2.557114749400000    5.839707718100000   13.258317709000000   -0.022143865004182    0.070861123502254   -0.002184997778386
70    6.511080716399999    6.099363946500000   13.258317709000000    0.017449604347348    0.066061124205589   -0.001043128781021
172    5.605411198500000    7.204585032000001   11.462611582800001   -0.095865860581398    0.020744502544403    0.123595014214516
48    9.617598366399999    7.121198551700000   11.607084522199999   -0.122771352529526   -0.008415192365646    0.206742495298386
126    8.770671515900000    5.839707718100000   13.258317709000000   -0.022675864398479    0.070338062942028    0.000055381562561
176   11.818968337799999    7.204585032000001   11.462611582800001   -0.092612400650978    0.023136615753174    0.124690771102905
20    0.297262781700000    9.217596871800000   11.607084522199999   -0.123076178133488    0.008965641260147    0.206527858972549
68    0.297523738700000   12.634882115900002   13.258317709000000    0.017852826043963    0.065399914979935    0.000004947185516
92    3.404301960299999   10.239431477000000   13.258317709000000    0.017738826572895   -0.064866483211517    0.000150785781443
124    2.557114749400000   12.375225508500000   13.258317709000000   -0.022904003039002    0.070440225303173   -0.000060921534896
140    2.498632815300000    9.134210391500000   11.462611582800001   -0.093628004193306   -0.023393809795380    0.124757684767246
24    6.510819237499998    9.217596871800000   11.607084522199999   -0.122175157070160    0.008539706468582    0.206634789705276
72    6.511080716399999   12.634882115900002   13.258317709000000    0.017804458737373    0.065387934446335    0.000017423182726
188    5.663893132700000   10.499088084400002   13.258317709000000   -0.022895473986864   -0.070419490337372   -0.000075004063547
96    9.617859099700000   10.239431477000000   13.258317709000000    0.017766922712326   -0.065391376614571    0.000009683426470
128    8.770671515900000   12.375225508500000   13.258317709000000   -0.022873863577843    0.070339836180210    0.000009993091226
144    8.712189954599999    9.134210391500000   11.462611582800001   -0.093359328806400   -0.022866077721119    0.124795235693455
192   11.877449899200000   10.499088084400002   13.258317709000000   -0.022782362997532   -0.070426151156425   -0.000136213944643
26    0.297262781700000    2.682078702400000   14.909550895800001   -0.122642643749714    0.008274853229523   -0.206633463501930
58    3.404041227099999    0.585680473800000   14.909550895800001   -0.122621081769466   -0.008394464850426   -0.206753492355347
146    2.498632815300000    2.598692026100000   15.054023835200001   -0.093636490404606   -0.023014552891254   -0.124800324440002
154    3.714923951199999    3.936826339400000   16.765937393600002    0.093527585268021    0.022984340786934    0.124797180294991
30    6.510819237499998    2.682078702400000   14.909550895800001   -0.122637830674648    0.008431196212769   -0.206714659929276
34    5.916293922700000    3.853439467000000   16.910411605800000    0.122643172740936   -0.008440658450127    0.206739842891693
106    5.605411198500000    0.669067150100000   15.054023835200001   -0.093528702855110    0.022968098521233   -0.124737828969955
38   12.129850316399997    3.853439467000000   16.910411605800000    0.122643038630486   -0.008458390831947    0.206741839647293
62    9.617598366399999    0.585680473800000   14.909550895800001   -0.122644156217575   -0.008436754345894   -0.206717073917389
110   11.818968337799999    0.669067150100000   15.054023835200001   -0.093479238450527    0.023046128451824   -0.124781206250191
150    8.712189954599999    2.598692026100000   15.054023835200001   -0.093547455966473   -0.023000597953796   -0.124750740826130
158    9.928480344900001    3.936826339400000   16.765937393600002    0.093502655625343    0.022972300648689    0.124777734279633
50    2.809515539400000    5.949837787100000   16.910411605800000    0.122607484459877    0.008435845375061    0.206737533211708
60    3.404041227099999    7.121198551700000   14.909550895800001   -0.123164191842079   -0.009258553385735   -0.208036154508591
130    0.608145655000000    5.866450914700000   16.765937393600002    0.093562372028828   -0.022952169179916    0.124729417264462
108    5.605411198500000    7.204585032000001   15.054023835200001   -0.093391381204128    0.023028708994389   -0.124915093183517
134    6.821702707300000    5.866450914700000   16.765937393600002    0.093594625592232   -0.023075178265572    0.124893970787525
54    9.023071933099999    5.949837787100000   16.910411605800000    0.122634425759315    0.008448347449303    0.206734359264374
64    9.617598366399999    7.121198551700000   14.909550895800001   -0.122628226876259   -0.008422970771790   -0.206714302301407
112   11.818968337799999    7.204585032000001   15.054023835200001   -0.093583665788174    0.023088850080967   -0.124621942639351
28    0.297262781700000    9.217596871800000   14.909550895800001   -0.122663900256157    0.008407205343246   -0.206729948520660
52    2.809515539400000   12.485355956499999   16.910411605800000    0.122639074921608    0.008459106087685    0.206754058599472
132    0.608145655000000   12.401968705000000   16.765937393600002    0.093523412942886   -0.022964403033257    0.124763786792755
148    2.498632815300000    9.134210391500000   15.054023835200001   -0.093684375286102   -0.022867463529110   -0.125155314803123
156    3.714923951199999   10.472344887900000   16.765937393600002    0.093577831983566    0.023122102022171    0.124891132116318
32    6.510819237499998    9.217596871800000   14.909550895800001   -0.122686050832272    0.008440986275673   -0.206866189837456
36    5.916293922700000   10.388957636400002   16.910411605800000    0.122639730572701   -0.008436828851700    0.206774175167084
136    6.821702707300000   12.401968705000000   16.765937393600002    0.093505695462227   -0.022968955338001    0.124746359884739
40   12.129850316399997   10.388957636400002   16.910411605800000    0.122616752982140   -0.008438184857368    0.206770211458206
56    9.023071933099999   12.485355956499999   16.910411605800000    0.122635260224342    0.008455887436867    0.206733241677284
152    8.712189954599999    9.134210391500000   15.054023835200001   -0.093500137329102   -0.023006916046143   -0.124776475131512
160    9.928480344900001   10.472344887900000   16.765937393600002    0.093493163585663    0.022959120571613    0.124751001596451
74    2.809254619699999    2.831604665700000   18.561644792599999   -0.017801342532039    0.065394617617130    0.000002559274435
98    3.714923951199999    3.936826339400000   20.357352191600000    0.093520447611809    0.022980943322182   -0.124798148870468
114    3.656442017100000    0.695810490500000   18.561644792599999    0.022867737337947   -0.070350386202335   -0.000022475840524
178    0.549663671100000    2.571948633400000   18.561644792599999    0.022876083850861    0.070350311696529   -0.000028284499422
10    5.916293922700000    3.853439467000000   20.212877979400002    0.122623547911644   -0.008450105786324   -0.206708341836929
82    5.916033189399998    0.436154327500000   18.561644792599999   -0.017801743000746   -0.065397843718529   -0.000004486180842
182    6.763220400299998    2.571948633400000   18.561644792599999    0.022858910262585    0.070358499884605   -0.000026188325137
14   12.129850316399997    3.853439467000000   20.212877979400002    0.122633911669254   -0.008465006947517   -0.206714376807213
78    9.022811199800000    2.831604665700000   18.561644792599999   -0.017802484333515    0.065392062067986   -0.000001455657184
86   12.129589583100000    0.436154327500000   18.561644792599999   -0.017802150920033   -0.065397493541241    0.000003948807716
102    9.928480344900001    3.936826339400000   20.357352191600000    0.093485459685326    0.022956758737564   -0.124765858054161
118    9.869998783600000    0.695810490500000   18.561644792599999    0.022866681218147   -0.070356510579586   -0.000020108185709
2    2.809515539400000    5.949837787100000   20.212877979400002    0.122636266052723    0.008450955152512   -0.206735089421272
116    3.656442017100000    7.231328999700000   18.561644792599999    0.022846236824989   -0.070406101644039    0.000018219867343
162    0.608145655000000    5.866450914700000   20.357352191600000    0.093492127954960   -0.022948928177357   -0.124775022268295
84    5.916033189399998    6.971672392300000   18.561644792599999   -0.017803203314543   -0.065405994653702   -0.000005981691629
166    6.821702707300000    5.866450914700000   20.357352191600000    0.093504287302494   -0.022999055683613   -0.124792590737343
6    9.023071933099999    5.949837787100000   20.212877979400002    0.122643038630486    0.008459702134132   -0.206714928150177
88   12.129589583100000    6.971672392300000   18.561644792599999   -0.017793873324990   -0.065404981374741   -0.000022832309696
120    9.869998783600000    7.231328999700000   18.561644792599999    0.022877927869558   -0.070354409515858   -0.000026079826057
4    2.809515539400000   12.485355956499999   20.212877979400002    0.122629791498184    0.008453100919724   -0.206707924604416
76    2.809254619699999    9.367123031200000   18.561644792599999   -0.017797624692321    0.065404586493969    0.000001587904990
100    3.714923951199999   10.472344887900000   20.357352191600000    0.093527436256409    0.022985912859440   -0.124816104769707
164    0.608145655000000   12.401968705000000   20.357352191600000    0.093513488769531   -0.022994831204414   -0.124814726412296
180    0.549663671100000    9.107466423800000   18.561644792599999    0.022856723517179    0.070357203483582   -0.000021057436243
12    5.916293922700000   10.388957636400002   20.212877979400002    0.122625395655632   -0.008460134267807   -0.206718623638153
168    6.821702707300000   12.401968705000000   20.357352191600000    0.093498587608337   -0.022973239421844   -0.124792322516441
184    6.763220400299998    9.107466423800000   18.561644792599999    0.022861238569021    0.070372857153416   -0.000020514242351
8    9.023071933099999   12.485355956499999   20.212877979400002    0.122637331485748    0.008453026413918   -0.206721499562263
16   12.129850316399997   10.388957636400002   20.212877979400002    0.122635111212730   -0.008458822965622   -0.206707149744034
80    9.022811199800000    9.367123031200000   18.561644792599999   -0.017801938578486    0.065406277775764   -0.000003281515092
104    9.928480344900001   10.472344887900000   20.357352191600000    0.093512408435345    0.022982701659203   -0.124802932143211
