ITEM: TIMESTEP
0
ITEM: NUMBER OF ATOMS
192
ITEM: BOX BOUNDS xy xz yz pp pp pp
0.0000000000000000e+00 1.2427113533000000e+01 0.0000000000000000e+00
0.0000000000000000e+00 1.3071036338800001e+01 0.0000000000000000e+00
0.0000000000000000e+00 2.1213308334400001e+01 0.0000000000000000e+00
ITEM: ATOMS id xu yu zu fx fy fz
17    0.297262781700000    2.682078702400000    1.000430206500000   -0.122385635972023    0.008479908108711    0.207134515047073
41    3.404041227099999    0.585680473800000    1.000430206500000   -0.122660323977470   -0.008463546633720    0.206639915704727
89    3.404301960299999    3.703913307600000    2.651663541800000    0.017840735614300   -0.065351702272892    0.000088821863756
137    2.498632815300000    2.598692026100000    0.855957012500000   -0.093437574803829   -0.023221939802170    0.124699003994465
21    6.510819237499998    2.682078702400000    1.000430206500000   -0.122737713158131    0.008534938097000    0.206638395786285
169    5.605411198500000    0.669067150100000    0.855957012500000   -0.093464419245720    0.022879697382450    0.124737083911896
185    5.663893132700000    3.963569536000000    2.651663541800000   -0.022887406870723   -0.070321127772331    0.000053338240832
45    9.617598366399999    0.585680473800000    1.000430206500000   -0.122664786875248   -0.008504986763000    0.206699907779694
93    9.617859099700000    3.703913307600000    2.651663541800000    0.017855156213045   -0.065397277474403    0.000082883052528
141    8.712189954599999    2.598692026100000    0.855957012500000   -0.093438521027565   -0.022992812097073    0.124780908226967
173   11.818968337799999    0.669067150100000    0.855957012500000   -0.093450963497162    0.023030735552311    0.124687403440475
189   11.877449899200000    3.963569536000000    2.651663541800000   -0.022912647575140   -0.070443190634251    0.000251962745097
43    3.404041227099999    7.121198551700000    1.000430206500000   -0.122325927019119   -0.008146256208420    0.206756353378296
65    0.297523738700000    6.099363946500000    2.661663541800000    0.018439643085003    0.064667753875256   -0.027442127466202
121    2.557114749400000    5.839707718100000    2.651663541800000   -0.022822627797723    0.070281781256199   -0.000147474464029
69    6.511080716399999    6.099363946500000    2.651663541800000    0.017815120518208    0.065370969474316    0.000112411566079
171    5.605411198500000    7.204585032000001    0.855957012500000   -0.093790739774704    0.023182943463326    0.124975837767124
47    9.617598366399999    7.121198551700000    1.000430206500000   -0.120912641286850   -0.007875189185143    0.206895709037781
125    8.770671515900000    5.839707718100000    2.651663541800000   -0.022880297154188    0.070341646671295    0.000220221001655
175   11.818968337799999    7.204585032000001    0.855957012500000   -0.085704647004604    0.015404336154461    0.133343830704689
19    0.297262781700000    9.217596871800000    1.000430206500000   -0.122930586338043    0.007655277848244    0.206396996974945
67    0.297523738700000   12.634882115900002    2.651663541800000    0.017826929688454    0.065391793847084   -0.000044004525989
91    3.404301960299999   10.239431477000000    2.651663541800000    0.017864651978016   -0.065393634140491    0.000081218975538
123    2.557114749400000   12.375225508500000    2.651663541800000   -0.022892512381077    0.070343792438507    0.000075614858360
139    2.498632815300000    9.134210391500000    0.855957012500000   -0.093786701560020   -0.023293308913708    0.125069320201874
23    6.510819237499998    9.217596871800000    1.000430206500000   -0.122651591897011    0.008485004305840    0.206727340817451
71    6.511080716399999   12.634882115900002    2.651663541800000    0.017784809693694    0.065418668091297   -0.000012503005564
187    5.663893132700000   10.499088084400002    2.651663541800000   -0.022890143096447   -0.070403851568699   -0.000026737805456
95    9.617859099700000   10.239431477000000    2.651663541800000    0.017838150262833   -0.065380051732063    0.000087682157755
127    8.770671515900000   12.375225508500000    2.651663541800000   -0.022854693233967    0.070292316377163   -0.000060237478465
143    8.712189954599999    9.134210391500000    0.855957012500000   -0.093521505594254   -0.022899076342583    0.124749757349491
191   11.877449899200000   10.499088084400002    2.651663541800000   -0.022948518395424   -0.070295333862305   -0.000030376628274
25    0.297262781700000    2.682078702400000    4.302896728600000   -0.122988715767860    0.008606582880020   -0.206291735172272
57    3.404041227099999    0.585680473800000    4.302896728600000   -0.122587814927101   -0.008559733629227   -0.206718653440475
145    2.498632815300000    2.598692026100000    4.447369986200000   -0.093534581363201   -0.022628188133240   -0.124759815633297
153    3.714923951199999    3.936826339400000    6.159283862799999    0.093350812792778    0.023171320557594    0.124755531549454
29    6.510819237499998    2.682078702400000    4.302896728600000   -0.122689150273800    0.008518993854523   -0.206709533929825
33    5.916293922700000    3.853439467000000    6.303757438599999    0.122659564018250   -0.008377671241760    0.206672340631485
105    5.605411198500000    0.669067150100000    4.447369986200000   -0.093560345470905    0.022982656955719   -0.124758720397949
37   12.129850316399997    3.853439467000000    6.303757438599999    0.122967630624771   -0.008220911026001    0.206207603216171
61    9.617598366399999    0.585680473800000    4.302896728600000   -0.122607648372650   -0.008508130908012   -0.206679582595825
109   11.818968337799999    0.669067150100000    4.447369986200000   -0.093566313385963    0.022860847413540   -0.124797783792019
149    8.712189954599999    2.598692026100000    4.447369986200000   -0.093449294567108   -0.022840112447739   -0.124684393405914
157    9.928480344900001    3.936826339400000    6.159283862799999    0.093817695975304    0.022791318595409    0.124698996543884
49    2.809515539400000    5.949837787100000    6.303757438599999    0.122070834040642    0.008410915732384    0.206027507781982
59    3.404041227099999    7.121198551700000    4.302896728600000   -0.123016633093357   -0.008938163518906   -0.206570118665695
129    0.608145655000000    5.866450914700000    6.159283862799999    0.096180669963360   -0.025782138109207    0.130744338035583
107    5.605411198500000    7.204585032000001    4.447369986200000   -0.093115180730820    0.022786602377892   -0.124518588185310
133    6.821702707300000    5.866450914700000    6.159283862799999    0.093307435512543   -0.022694610059261    0.124415308237076
53    9.023071933099999    5.949837787100000    6.303757438599999    0.123435214161873    0.009038090705872    0.205665469169617
63    9.617598366399999    7.121198551700000    4.302896728600000   -0.124210193753242   -0.009242400527000   -0.206467464566231
111   11.818968337799999    7.204585032000001    4.447369986200000   -0.102132126688957    0.031311877071857   -0.114988371729851
27    0.297262781700000    9.217596871800000    4.302896728600000   -0.122427836060524    0.009296104311943   -0.206895172595978
51    2.809515539400000   12.485355956499999    6.303757438599999    0.122673697769642    0.008532062172890    0.206593006849289
131    0.608145655000000   12.401968705000000    6.159283862799999    0.093402065336704   -0.023120813071728    0.124797157943249
147    2.498632815300000    9.134210391500000    4.447369986200000   -0.093163840472698   -0.022538118064404   -0.124377422034740
155    3.714923951199999   10.472344887900000    6.159283862799999    0.093324147164822    0.022673584520817    0.124549902975559
31    6.510819237499998    9.217596871800000    4.302896728600000   -0.122819401323795    0.008502051234245   -0.206723928451538
35    5.916293922700000   10.388957636400002    6.303757438599999    0.122697770595551   -0.008512482047081    0.206667184829712
135    6.821702707300000   12.401968705000000    6.159283862799999    0.093452088534832   -0.022907115519047    0.124785616993904
39   12.129850316399997   10.388957636400002    6.303757438599999    0.122563339769840   -0.008057445287704    0.206775531172752
55    9.023071933099999   12.485355956499999    6.303757438599999    0.122607178986073    0.008463859558105    0.206602826714516
151    8.712189954599999    9.134210391500000    4.447369986200000   -0.093375369906425   -0.022883683443069   -0.124689042568207
159    9.928480344900001   10.472344887900000    6.159283862799999    0.093955338001251    0.022727936506271    0.124648891389370
73    2.809254619699999    2.831604665700000    7.954990625400001   -0.017773989588022    0.065428800880909   -0.000024131499231
97    3.714923951199999    3.936826339400000    9.750697388000001    0.093482926487923    0.023016437888145   -0.124793633818626
113    3.656442017100000    0.695810490500000    7.954990625400001    0.022955514490604   -0.070216342806816    0.000025819754228
177    0.549663671100000    2.571948633400000    7.954990625400001    0.022834261879325    0.070385977625847   -0.000178690534085
9    5.916293922700000    3.853439467000000    9.606223812200000    0.122620858252048   -0.008503109216690   -0.206643581390381
81    5.916033189399998    0.436154327500000    7.954990625400001   -0.017839619889855   -0.065401747822762   -0.000016099773347
181    6.763220400299998    2.571948633400000    7.954990625400001    0.022889450192451    0.070323355495930   -0.000020460924134
13   12.129850316399997    3.853439467000000    9.606223812200000    0.122584685683250   -0.008487150073051   -0.206475466489792
77    9.022811199800000    2.831604665700000    7.954990625400001   -0.017768900841475    0.065424509346485   -0.000044388696551
85   12.129589583100000    0.436154327500000    7.954990625400001   -0.017831414937973   -0.065441533923149    0.000028627309803
101    9.928480344900001    3.936826339400000    9.750697388000001    0.093579970300198    0.022975869476795   -0.124837368726730
117    9.869998783600000    0.695810490500000    7.954990625400001    0.022976601496339   -0.070163615047932    0.000028119422495
1    2.809515539400000    5.949837787100000    9.606223812200000    0.122723422944546    0.008410796523094   -0.206525623798370
115    3.656442017100000    7.231328999700000    7.954990625400001    0.022803243249655   -0.070384562015533   -0.000159456860274
161    0.608145655000000    5.866450914700000    9.750697388000001    0.093431249260902   -0.022981859743595   -0.124904423952103
83    5.916033189399998    6.971672392300000    7.954990625400001   -0.017708662897348   -0.065461017191410   -0.000120169017464
165    6.821702707300000    5.866450914700000    9.750697388000001    0.093503400683403   -0.022931799292564   -0.124754883348942
5    9.023071933099999    5.949837787100000    9.606223812200000    0.122652530670166    0.008503511548042   -0.206724137067795
87   12.129589583100000    6.971672392300000    7.954990625400001   -0.017926108092070   -0.065434344112873    0.000241834379267
119    9.869998783600000    7.231328999700000    7.954990625400001    0.023175366222858   -0.070215173065662    0.000100231729448
3    2.809515539400000   12.485355956499999    9.606223812200000    0.122641734778881    0.008495554327965   -0.206620842218399
75    2.809254619699999    9.367123031200000    7.954990625400001   -0.017804503440857    0.065425805747509   -0.000006711576134
99    3.714923951199999   10.472344887900000    9.750697388000001    0.093481443822384    0.022871688008308   -0.124732427299023
163    0.608145655000000   12.401968705000000    9.750697388000001    0.093472249805927   -0.022867903113365   -0.124762281775475
179    0.549663671100000    9.107466423800000    7.954990625400001    0.022901382297277    0.070123776793480   -0.000125102931634
11    5.916293922700000   10.388957636400002    9.606223812200000    0.122647866606712   -0.008507460355759   -0.206674441695213
167    6.821702707300000   12.401968705000000    9.750697388000001    0.093431308865547   -0.022965669631958   -0.124768629670143
183    6.763220400299998    9.107466423800000    7.954990625400001    0.022905910387635    0.070299372076988    0.000018571736291
7    9.023071933099999   12.485355956499999    9.606223812200000    0.122659765183926    0.008548676967621   -0.206610426306725
15   12.129850316399997   10.388957636400002    9.606223812200000    0.122636355459690   -0.008480489253998   -0.206574380397797
79    9.022811199800000    9.367123031200000    7.954990625400001   -0.017771586775780    0.065393529832363   -0.000041838735342
103    9.928480344900001   10.472344887900000    9.750697388000001    0.093445234000683    0.022830732166767   -0.124701417982578
18    0.297262781700000    2.682078702400000   11.607084522199999   -0.122711360454559    0.008556783199310    0.206646308302879
42    3.404041227099999    0.585680473800000   11.607084522199999   -0.122699797153473   -0.008535534143448    0.206708997488022
90    3.404301960299999    3.703913307600000   13.258317709000000    0.017816811800003   -0.065374895930290   -0.000007674851076
138    2.498632815300000    2.598692026100000   11.462611582800001   -0.093433275818825   -0.022907920181751    0.124771676957607
22    6.510819237499998    2.682078702400000   11.607084522199999   -0.122692003846169    0.008459597826004    0.206665620207787
170    5.605411198500000    0.669067150100000   11.462611582800001   -0.093432307243347    0.022972837090492    0.124787189066410
186    5.663893132700000    3.963569536000000   13.258317709000000   -0.022910799831152   -0.070303879678249    0.000026155728847
46    9.617598366399999    0.585680473800000   11.607084522199999   -0.122708126902580   -0.008533328771591    0.206702768802643
94    9.617859099700000    3.703913307600000   13.258317709000000    0.017800256609917   -0.065372832119465    0.000018340302631
142    8.712189954599999    2.598692026100000   11.462611582800001   -0.093476973474026   -0.022960871458054    0.124781385064125
174   11.818968337799999    0.669067150100000   11.462611582800001   -0.093440666794777    0.022900238633156    0.124772332608700
190   11.877449899200000    3.963569536000000   13.258317709000000   -0.022877860814333   -0.070314332842827    0.000022065825760
44    3.404041227099999    7.121198551700000   11.607084522199999   -0.122674472630024   -0.008488908410072    0.206712231040001
66    0.297523738700000    6.099363946500000   13.258317709000000    0.017838001251221    0.065400376915932    0.000014729797840
122    2.557114749400000    5.839707718100000   13.258317709000000   -0.022896207869053    0.070339754223824    0.000031732284697
70    6.511080716399999    6.099363946500000   13.258317709000000    0.017808003351092    0.065414190292358   -0.000001580454409
172    5.605411198500000    7.204585032000001   11.462611582800001   -0.093431308865547    0.022971786558628    0.124786078929901
48    9.617598366399999    7.121198551700000   11.607084522199999   -0.122634179890156   -0.008463338017464    0.206712499260902
126    8.770671515900000    5.839707718100000   13.258317709000000   -0.022861817851663    0.070369169116020    0.000020870473236
176   11.818968337799999    7.204585032000001   11.462611582800001   -0.093519128859043    0.022984921932220    0.124765440821648
20    0.297262781700000    9.217596871800000   11.607084522199999   -0.122632548213005    0.008451312780380    0.206732273101807
68    0.297523738700000   12.634882115900002   13.258317709000000    0.017804607748985    0.065391212701797    0.000007372349501
92    3.404301960299999   10.239431477000000   13.258317709000000    0.017815444618464   -0.065396487712860   -0.000000100706814
124    2.557114749400000   12.375225508500000   13.258317709000000   -0.022873871028423    0.070342145860195    0.000034889962990
140    2.498632815300000    9.134210391500000   11.462611582800001   -0.093498557806015   -0.022892802953720    0.124741911888123
24    6.510819237499998    9.217596871800000   11.607084522199999   -0.122637778520584    0.008464440703392    0.206736177206039
72    6.511080716399999   12.634882115900002   13.258317709000000    0.017813362181187    0.065393880009651    0.000017187558115
188    5.663893132700000   10.499088084400002   13.258317709000000   -0.022871186956763   -0.070367790758610    0.000009098555893
96    9.617859099700000   10.239431477000000   13.258317709000000    0.017812870442867   -0.065394535660744    0.000006220070645
128    8.770671515900000   12.375225508500000   13.258317709000000   -0.022863235324621    0.070351719856262    0.000020972445782
144    8.712189954599999    9.134210391500000   11.462611582800001   -0.093494243919849   -0.022947676479816    0.124758921563625
192   11.877449899200000   10.499088084400002   13.258317709000000   -0.022870032116771   -0.070366844534874    0.000017911428586
26    0.297262781700000    2.682078702400000   14.909550895800001   -0.122612975537777    0.008409351110458   -0.206682652235031
58    3.404041227099999    0.585680473800000   14.909550895800001   -0.122635245323181   -0.008450537919998   -0.206721588969231
146    2.498632815300000    2.598692026100000   15.054023835200001   -0.093550615012646   -0.023000366985798   -0.124747738242149
154    3.714923951199999    3.936826339400000   16.765937393600002    0.093522533774376    0.022953875362873    0.124729670584202
30    6.510819237499998    2.682078702400000   14.909550895800001   -0.122607618570328    0.008408442139626   -0.206678897142410
34    5.916293922700000    3.853439467000000   16.910411605800000    0.122647948563099   -0.008440822362900    0.206738471984863
106    5.605411198500000    0.669067150100000   15.054023835200001   -0.093500331044197    0.022990301251411   -0.124749079346657
38   12.129850316399997    3.853439467000000   16.910411605800000    0.122699610888958   -0.008463352918625    0.206880226731300
62    9.617598366399999    0.585680473800000   14.909550895800001   -0.122639507055283   -0.008448541164398   -0.206720262765884
110   11.818968337799999    0.669067150100000   15.054023835200001   -0.093497559428215    0.022987708449364   -0.124739825725555
150    8.712189954599999    2.598692026100000   15.054023835200001   -0.093541577458382   -0.022997960448265   -0.124742247164249
158    9.928480344900001    3.936826339400000   16.765937393600002    0.093472018837929    0.022981584072113    0.124711200594902
50    2.809515539400000    5.949837787100000   16.910411605800000    0.122616663575172    0.008478581905365    0.206865876913071
60    3.404041227099999    7.121198551700000   14.909550895800001   -0.122635960578918   -0.008444294333458   -0.206719547510147
130    0.608145655000000    5.866450914700000   16.765937393600002    0.093530505895615   -0.022971130907536    0.124610446393490
108    5.605411198500000    7.204585032000001   15.054023835200001   -0.093497045338154    0.022968754172325   -0.124736815690994
134    6.821702707300000    5.866450914700000   16.765937393600002    0.093491122126579   -0.022955752909184    0.124739632010460
54    9.023071933099999    5.949837787100000   16.910411605800000    0.122645102441311    0.008445322513580    0.206706464290619
64    9.617598366399999    7.121198551700000   14.909550895800001   -0.122633047401905   -0.008448079228401   -0.206740677356720
112   11.818968337799999    7.204585032000001   15.054023835200001   -0.093536116182804    0.023004829883575   -0.124780133366585
28    0.297262781700000    9.217596871800000   14.909550895800001   -0.122637599706650    0.008439734578133   -0.206726387143135
52    2.809515539400000   12.485355956499999   16.910411605800000    0.122630767524242    0.008456930518150    0.206741660833359
132    0.608145655000000   12.401968705000000   16.765937393600002    0.093505084514618   -0.022986635565758    0.124740421772003
148    2.498632815300000    9.134210391500000   15.054023835200001   -0.093509070575237   -0.022976182401180   -0.124745644629002
156    3.714923951199999   10.472344887900000   16.765937393600002    0.093506030738354    0.022971034049988    0.124739751219749
32    6.510819237499998    9.217596871800000   14.909550895800001   -0.122637860476971    0.008447170257568   -0.206736177206039
36    5.916293922700000   10.388957636400002   16.910411605800000    0.122632220387459   -0.008450880646706    0.206734299659729
136    6.821702707300000   12.401968705000000   16.765937393600002    0.093509331345558   -0.022973008453846    0.124750837683678
40   12.129850316399997   10.388957636400002   16.910411605800000    0.122663050889969   -0.008478194475174    0.206784754991531
56    9.023071933099999   12.485355956499999   16.910411605800000    0.122635938227177    0.008454665541649    0.206733807921410
152    8.712189954599999    9.134210391500000   15.054023835200001   -0.093498781323433   -0.022976651787758   -0.124737277626991
160    9.928480344900001   10.472344887900000   16.765937393600002    0.093514978885651    0.022960335016251    0.124767564237118
74    2.809254619699999    2.831604665700000   18.561644792599999   -0.017807377502322    0.065379105508327   -0.000016666017473
98    3.714923951199999    3.936826339400000   20.357352191600000    0.093684643507004    0.022742994129658   -0.124798059463501
114    3.656442017100000    0.695810490500000   18.561644792599999    0.022877439856529   -0.070374064147472   -0.000027344794944
178    0.549663671100000    2.571948633400000   18.561644792599999    0.022899167612195    0.070260025560856   -0.000199705129489
10    5.916293922700000    3.853439467000000   20.212877979400002    0.122583523392677   -0.008581161499023   -0.206722795963287
82    5.916033189399998    0.436154327500000   18.561644792599999   -0.017806481570005   -0.065396912395954    0.000003150664270
182    6.763220400299998    2.571948633400000   18.561644792599999    0.022853458300233    0.070348545908928   -0.000014575896785
14   12.129850316399997    3.853439467000000   20.212877979400002    0.122346289455891   -0.008774161338806   -0.207180172204971
78    9.022811199800000    2.831604665700000   18.561644792599999   -0.017817189916968    0.065371289849281   -0.000039700418711
86   12.129589583100000    0.436154327500000   18.561644792599999   -0.017783872783184   -0.065362796187401    0.000043658634240
102    9.928480344900001    3.936826339400000   20.357352191600000    0.093139663338661    0.023089364171028   -0.124820694327354
118    9.869998783600000    0.695810490500000   18.561644792599999    0.022856242954731   -0.070375733077526   -0.000013065524399
2    2.809515539400000    5.949837787100000   20.212877979400002    0.123237483203411    0.008524313569069   -0.207298547029495
116    3.656442017100000    7.231328999700000   18.561644792599999    0.022989034652710   -0.070276051759720   -0.000185662618605
162    0.608145655000000    5.866450914700000   20.357352191600000    0.090816013514996   -0.020109549164772   -0.118809878826141
84    5.916033189399998    6.971672392300000   18.561644792599999   -0.017904954031110   -0.065329208970070   -0.000132596847834
166    6.821702707300000    5.866450914700000   20.357352191600000    0.093612149357796   -0.023243539035320   -0.125124871730804
6    9.023071933099999    5.949837787100000   20.212877979400002    0.121962398290634    0.007971122860909   -0.207674026489258
88   12.129589583100000    6.971672392300000   18.561644792599999   -0.017729593440890   -0.065371699631214    0.000263028661720
120    9.869998783600000    7.231328999700000   18.561644792599999    0.022608727216721   -0.070463545620441    0.000052730552852
4    2.809515539400000   12.485355956499999   20.212877979400002    0.122600793838501    0.008435904979706   -0.206728130578995
76    2.809254619699999    9.367123031200000   18.561644792599999   -0.017825126647949    0.065393120050430   -0.000014252029359
100    3.714923951199999   10.472344887900000   20.357352191600000    0.093669563531876    0.023159638047218   -0.125005051493645
164    0.608145655000000   12.401968705000000   20.357352191600000    0.093552812933922   -0.022819615900517   -0.124802313745022
180    0.549663671100000    9.107466423800000   18.561644792599999    0.022921925410628    0.070483371615410   -0.000148766906932
12    5.916293922700000   10.388957636400002   20.212877979400002    0.122596397995949   -0.008461758494377   -0.206711828708649
168    6.821702707300000   12.401968705000000   20.357352191600000    0.093494296073914   -0.022977799177170   -0.124791003763676
184    6.763220400299998    9.107466423800000   18.561644792599999    0.022839657962322    0.070377819240093   -0.000010915566236
8    9.023071933099999   12.485355956499999   20.212877979400002    0.122653923928738    0.008465990424156   -0.206728368997574
16   12.129850316399997   10.388957636400002   20.212877979400002    0.122706525027752   -0.008875623345375   -0.206546247005463
80    9.022811199800000    9.367123031200000   18.561644792599999   -0.017830165103078    0.065398603677750   -0.000032197218388
104    9.928480344900001   10.472344887900000   20.357352191600000    0.093037813901901    0.023097388446331   -0.124877318739891
