ITEM: TIMESTEP
0
ITEM: NUMBER OF ATOMS
192
ITEM: BOX BOUNDS xy xz yz pp pp pp
0.0000000000000000e+00 1.2427113533000000e+01 0.0000000000000000e+00
0.0000000000000000e+00 1.3071036338800001e+01 0.0000000000000000e+00
0.0000000000000000e+00 2.1213308334400001e+01 0.0000000000000000e+00
ITEM: ATOMS id xu yu zu fx fy fz
17    0.297262781700000    2.682078702400000    1.000430206500000   -0.122644022107124    0.008552744984627    0.206730097532272
41    3.404041227099999    0.585680473800000    1.000430206500000   -0.122671037912369   -0.008478149771690    0.206650108098984
89    3.404301960299999    3.703913307600000    2.651663541800000    0.017864413559437   -0.065345726907253   -0.000145739410073
137    2.498632815300000    2.598692026100000    0.855957012500000   -0.093509748578072   -0.022938020527363    0.124776363372803
21    6.510819237499998    2.682078702400000    1.000430206500000   -0.122736185789108    0.008557051420212    0.206683441996574
169    5.605411198500000    0.669067150100000    0.855957012500000   -0.093471400439739    0.022901959717274    0.124738186597824
185    5.663893132700000    3.963569536000000    2.651663541800000   -0.022939840331674   -0.070320948958397    0.000080068595707
45    9.617598366399999    0.585680473800000    1.000430206500000   -0.122681185603142   -0.008515223860741    0.206695243716240
93    9.617859099700000    3.703913307600000    2.651663541800000    0.017856385558844   -0.065393373370171   -0.000011194497347
141    8.712189954599999    2.598692026100000    0.855957012500000   -0.093404963612556   -0.022933810949326    0.124720513820648
173   11.818968337799999    0.669067150100000    0.855957012500000   -0.093503184616566    0.022940739989281    0.124740488827229
189   11.877449899200000    3.963569536000000    2.651663541800000   -0.022884260863066   -0.070356145501137   -0.000035554272472
43    3.404041227099999    7.121198551700000    1.000430206500000   -0.122677139937878   -0.008526459336281    0.206680297851562
65    0.297523738700000    6.099363946500000    2.651663541800000    0.017868015915155    0.065370664000511   -0.000033933669329
121    2.557114749400000    5.839707718100000    2.651663541800000   -0.022870475426316    0.070256300270557    0.000086728949100
69    6.511080716399999    6.099363946500000    2.651663541800000    0.017828322947025    0.065344370901585   -0.000043788924813
171    5.605411198500000    7.204585032000001    0.855957012500000   -0.093427173793316    0.023015104234219    0.124749734997749
47    9.617598366399999    7.121198551700000    1.000430206500000   -0.122598543763161   -0.008542016148567    0.206693381071091
125    8.770671515900000    5.839707718100000    2.651663541800000   -0.022897155955434    0.070328392088413   -0.000013879965991
175   11.818968337799999    7.204585032000001    0.855957012500000   -0.093528032302856    0.022959560155869    0.124722018837929
19    0.297262781700000    9.217596871800000    1.000430206500000   -0.122680664062500    0.008466452360153    0.206644386053085
67    0.297523738700000   12.634882115900002    2.651663541800000    0.017825771123171    0.065393231809139   -0.000001990236342
91    3.404301960299999   10.239431477000000    2.651663541800000    0.017864316701889   -0.065391622483730    0.000003109091722
123    2.557114749400000   12.375225508500000    2.651663541800000   -0.022890053689480    0.070356465876102    0.000058722318499
139    2.498632815300000    9.134210391500000    0.855957012500000   -0.093512713909149   -0.022940248250961    0.124734863638878
23    6.510819237499998    9.217596871800000    1.000430206500000   -0.122751362621784    0.008481889963150    0.206725731492043
71    6.511080716399999   12.634882115900002    2.651663541800000    0.017777184024453    0.065420620143414    0.000011913478374
187    5.663893132700000   10.499088084400002    2.651663541800000   -0.022893073037267   -0.070399299263954   -0.000009369570762
95    9.617859099700000   10.239431477000000    2.651663541800000    0.017837489023805   -0.065379709005356    0.000014376593754
127    8.770671515900000   12.375225508500000    2.651663541800000   -0.022851340472698    0.070291936397552   -0.000050318893045
143    8.712189954599999    9.134210391500000    0.855957012500000   -0.093462407588959   -0.022917494177818    0.124735847115517
191   11.877449899200000   10.499088084400002    2.651663541800000   -0.022960688918829   -0.070258110761642   -0.000056347951613
25    0.297262781700000    2.682078702400000    4.302896728600000   -0.122703671455383    0.008539870381355   -0.206573426723480
57    3.404041227099999    0.585680473800000    4.302896728600000   -0.122565835714340   -0.008636236190796   -0.206769913434982
145    2.498632815300000    2.598692026100000    4.447369986200000   -0.093873634934425   -0.023340635001659   -0.124655209481716
153    3.714923951199999    3.936826339400000    6.159283862799999    0.091941721737385    0.020499296486378    0.132990553975105
29    6.510819237499998    2.682078702400000    4.302896728600000   -0.122901514172554    0.008478224277496   -0.206852048635483
33    5.916293922700000    3.853439467000000    6.303757438599999    0.123020306229591   -0.008176252245903    0.206747069954872
105    5.605411198500000    0.669067150100000    4.447369986200000   -0.093557842075825    0.022928178310394   -0.124809101223946
37   12.129850316399997    3.853439467000000    6.303757438599999    0.122469201683998   -0.008365049958229    0.206429481506348
61    9.617598366399999    0.585680473800000    4.302896728600000   -0.122600644826889   -0.008494824171066   -0.206676229834557
109   11.818968337799999    0.669067150100000    4.447369986200000   -0.093542665243149    0.022981911897659   -0.124768860638142
149    8.712189954599999    2.598692026100000    4.447369986200000   -0.093387812376022   -0.022989213466644   -0.124803453683853
157    9.928480344900001    3.936826339400000    6.159283862799999    0.093548148870468    0.022905558347702    0.124784566462040
49    2.809515539400000    5.949837787100000    6.303757438599999    0.121756732463837    0.008497908711433    0.206923663616180
59    3.404041227099999    7.121198551700000    4.302896728600000   -0.122565008699894   -0.008263871073723   -0.207031488418579
129    0.608145655000000    5.866450914700000    6.159283862799999    0.093793228268623   -0.022932119667530    0.125037923455238
107    5.605411198500000    7.204585032000001    4.447369986200000   -0.093476697802544    0.023037478327751   -0.124884173274040
133    6.821702707300000    5.866450914700000    6.159283862799999    0.093394897878170   -0.023304007947445    0.124999120831490
53    9.023071933099999    5.949837787100000    6.303757438599999    0.122788257896900    0.008607774972916    0.206650510430336
63    9.617598366399999    7.121198551700000    4.302896728600000   -0.122639700770378   -0.008542567491531   -0.206670865416527
111   11.818968337799999    7.204585032000001    4.447369986200000   -0.093685775995255    0.022938646376133   -0.124867498874664
27    0.297262781700000    9.217596871800000    4.302896728600000   -0.122649610042572    0.008576139807701   -0.206676945090294
51    2.809515539400000   12.485355956499999    6.303757438599999    0.122416548430920    0.008100330829620    0.206158399581909
131    0.608145655000000   12.401968705000000    6.159283862799999    0.093457564711571   -0.023081853985786    0.124746978282928
147    2.498632815300000    9.134210391500000    4.447369986200000   -0.093399286270142   -0.022938609123230   -0.124706327915192
155    3.714923951199999   10.472344887900000    6.159283862799999    0.093474090099335    0.022887848317623    0.124808818101883
31    6.510819237499998    9.217596871800000    4.302896728600000   -0.122713811695576    0.008512169122696   -0.206718474626541
35    5.916293922700000   10.388957636400002    6.303757438599999    0.122683145105839   -0.008542656898499    0.206637069582939
135    6.821702707300000   12.401968705000000    6.159283862799999    0.093461342155933   -0.022916413843632    0.124744683504105
39   12.129850316399997   10.388957636400002    6.303757438599999    0.122617669403553   -0.008456200361252    0.206675857305527
55    9.023071933099999   12.485355956499999    6.303757438599999    0.122642979025841    0.008468523621559    0.206584006547928
151    8.712189954599999    9.134210391500000    4.447369986200000   -0.093446448445320   -0.022863619029522   -0.124703854322433
159    9.928480344900001   10.472344887900000    6.159283862799999    0.093485929071903    0.022850103676319    0.124739751219749
73    2.809254619699999    2.831604665700000    7.954990625400001   -0.012593263760209    0.071623668074608    0.008725743740797
97    3.714923951199999    3.936826339400000    9.760697388000001    0.081578671932220    0.005267046391964   -0.135351374745369
113    3.656442017100000    0.695810490500000    7.954990625400001    0.021698385477066   -0.063910268247128    0.000407368410379
177    0.549663671100000    2.571948633400000    7.954990625400001    0.028816308826208    0.070667572319508    0.000010818475857
9    5.916293922700000    3.853439467000000    9.606223812200000    0.126956209540367   -0.008976727724075   -0.206909090280533
81    5.916033189399998    0.436154327500000    7.954990625400001   -0.017405269667506   -0.065803259611130   -0.000050297938287
181    6.763220400299998    2.571948633400000    7.954990625400001    0.022526949644089    0.070069380104542   -0.000209640478715
13   12.129850316399997    3.853439467000000    9.606223812200000    0.122595891356468   -0.008431792259216   -0.205680474638939
77    9.022811199800000    2.831604665700000    7.954990625400001   -0.017573287710547    0.065524764358997    0.000224830582738
85   12.129589583100000    0.436154327500000    7.954990625400001   -0.017863607034087   -0.065778836607933    0.000060279235186
101    9.928480344900001    3.936826339400000    9.750697388000001    0.092999197542667    0.021995805203915   -0.123498260974884
117    9.869998783600000    0.695810490500000    7.954990625400001    0.022948700934649   -0.070182792842388    0.000023046275601
1    2.809515539400000    5.949837787100000    9.606223812200000    0.121303230524063    0.012604787945747   -0.207229584455490
115    3.656442017100000    7.231328999700000    7.954990625400001    0.023512523621321   -0.070485681295395   -0.000333044677973
161    0.608145655000000    5.866450914700000    9.750697388000001    0.092595890164375   -0.022808991372585   -0.124707207083702
83    5.916033189399998    6.971672392300000    7.954990625400001   -0.017931956797838   -0.065593257546425    0.000328634399921
165    6.821702707300000    5.866450914700000    9.750697388000001    0.093765713274479   -0.022164747118950   -0.124695539474487
5    9.023071933099999    5.949837787100000    9.606223812200000    0.122643262147903    0.008269906044006   -0.206677243113518
87   12.129589583100000    6.971672392300000    7.954990625400001   -0.017841350287199   -0.065334960818291    0.000013907620087
119    9.869998783600000    7.231328999700000    7.954990625400001    0.022939799353480   -0.070337146520615    0.000040283426642
3    2.809515539400000   12.485355956499999    9.606223812200000    0.122496373951435    0.007793202996254   -0.205678761005402
75    2.809254619699999    9.367123031200000    7.954990625400001   -0.017889674752951    0.065522968769073   -0.000036454759538
99    3.714923951199999   10.472344887900000    9.750697388000001    0.093408271670341    0.022326618432999   -0.124488472938538
163    0.608145655000000   12.401968705000000    9.750697388000001    0.093718782067299   -0.022834859788418   -0.124475523829460
179    0.549663671100000    9.107466423800000    7.954990625400001    0.022958321496844    0.070224784314632    0.000054577365518
11    5.916293922700000   10.388957636400002    9.606223812200000    0.122614890336990   -0.008549451828003   -0.206616431474686
167    6.821702707300000   12.401968705000000    9.750697388000001    0.093244858086109   -0.022660486400127   -0.124465353786945
183    6.763220400299998    9.107466423800000    7.954990625400001    0.022865645587444    0.070258483290672    0.000036500860006
7    9.023071933099999   12.485355956499999    9.606223812200000    0.122581154108047    0.008565679192543   -0.206620410084724
15   12.129850316399997   10.388957636400002    9.606223812200000    0.122695825994015   -0.008508846163750   -0.206632182002068
79    9.022811199800000    9.367123031200000    7.954990625400001   -0.017817538231611    0.065409585833549   -0.000008289236575
103    9.928480344900001   10.472344887900000    9.750697388000001    0.093489989638329    0.022818610072136   -0.124702334403992
18    0.297262781700000    2.682078702400000   11.607084522199999   -0.130341976881027    0.009071424603462    0.206583395600319
42    3.404041227099999    0.585680473800000   11.607084522199999   -0.120173528790474   -0.016265153884888    0.207239687442780
90    3.404301960299999    3.703913307600000   13.258317709000000    0.019136181101203   -0.063952341675758    0.005884451791644
138    2.498632815300000    2.598692026100000   11.462611582800001   -0.084834173321724   -0.012507498264313    0.112839296460152
22    6.510819237499998    2.682078702400000   11.607084522199999   -0.125527918338776    0.009433031082153    0.205465525388718
170    5.605411198500000    0.669067150100000   11.462611582800001   -0.093155823647976    0.023538738489151    0.124965623021126
186    5.663893132700000    3.963569536000000   13.258317709000000   -0.021807804703712   -0.070866413414478    0.000047024805099
46    9.617598366399999    0.585680473800000   11.607084522199999   -0.122908100485802   -0.008013933897018    0.206688001751900
94    9.617859099700000    3.703913307600000   13.258317709000000    0.017725158482790   -0.065588980913162   -0.000325192464516
142    8.712189954599999    2.598692026100000   11.462611582800001   -0.093352407217026   -0.022160410881042    0.123700946569443
174   11.818968337799999    0.669067150100000   11.462611582800001   -0.093316011130810    0.022528506815434    0.124778456985950
190   11.877449899200000    3.963569536000000   13.258317709000000   -0.022779613733292   -0.070036336779594    0.000195609405637
44    3.404041227099999    7.121198551700000   11.607084522199999   -0.122369423508644   -0.008930161595345    0.206658244132996
66    0.297523738700000    6.099363946500000   13.258317709000000    0.017864070832729    0.065360374748707    0.000003267079592
122    2.557114749400000    5.839707718100000   13.258317709000000   -0.022813757881522    0.071194939315319   -0.000575539364945
70    6.511080716399999    6.099363946500000   13.258317709000000    0.017666192725301    0.065314061939716   -0.000070982612669
172    5.605411198500000    7.204585032000001   11.462611582800001   -0.094481520354748    0.022891029715538    0.124977357685566
48    9.617598366399999    7.121198551700000   11.607084522199999   -0.122589185833931   -0.008443087339401    0.206753000617027
126    8.770671515900000    5.839707718100000   13.258317709000000   -0.023053392767906    0.070385977625847   -0.000013691838831
176   11.818968337799999    7.204585032000001   11.462611582800001   -0.093468502163887    0.022952079772949    0.124788828194141
20    0.297262781700000    9.217596871800000   11.607084522199999   -0.122482039034367    0.008397564291954    0.206696182489395
68    0.297523738700000   12.634882115900002   13.258317709000000    0.017988711595535    0.065697431564331   -0.000176145229489
92    3.404301960299999   10.239431477000000   13.258317709000000    0.017838850617409   -0.065414488315582    0.000013532679077
124    2.557114749400000   12.375225508500000   13.258317709000000   -0.023151624947786    0.070483893156052   -0.000023614786187
140    2.498632815300000    9.134210391500000   11.462611582800001   -0.093028947710991   -0.023223355412483    0.124520704150200
24    6.510819237499998    9.217596871800000   11.607084522199999   -0.122837126255035    0.008141234517097    0.206775888800621
72    6.511080716399999   12.634882115900002   13.258317709000000    0.017733115702868    0.065417677164078   -0.000068902969360
188    5.663893132700000   10.499088084400002   13.258317709000000   -0.022892404347658   -0.070367790758610   -0.000041485764086
96    9.617859099700000   10.239431477000000   13.258317709000000    0.017813997343183   -0.065411150455475    0.000007697381079
128    8.770671515900000   12.375225508500000   13.258317709000000   -0.022847503423691    0.070386387407780   -0.000015690451619
144    8.712189954599999    9.134210391500000   11.462611582800001   -0.093508191406727   -0.022947289049625    0.124720916152000
192   11.877449899200000   10.499088084400002   13.258317709000000   -0.022856269031763   -0.070303179323673   -0.000003530643880
26    0.297262781700000    2.682078702400000   14.909550895800001   -0.122491642832756    0.008259743452072   -0.206680402159691
58    3.404041227099999    0.585680473800000   14.909550895800001   -0.122532427310944   -0.008375167846680   -0.206742435693741
146    2.498632815300000    2.598692026100000   15.054023835200001   -0.093877136707306   -0.023387633264065   -0.124627716839314
154    3.714923951199999    3.936826339400000   16.765937393600002    0.093510240316391    0.022999636828899    0.124939784407616
30    6.510819237499998    2.682078702400000   14.909550895800001   -0.122829318046570    0.008658021688461   -0.206919550895691
34    5.916293922700000    3.853439467000000   16.910411605800000    0.122580945491791   -0.008412152528763    0.206682741641998
106    5.605411198500000    0.669067150100000   15.054023835200001   -0.093566484749317    0.022983863949776   -0.124887838959694
38   12.129850316399997    3.853439467000000   16.910411605800000    0.122621990740299   -0.008412525057793    0.206883728504181
62    9.617598366399999    0.585680473800000   14.909550895800001   -0.122585169970989   -0.008439376950264   -0.206709459424019
110   11.818968337799999    0.669067150100000   15.054023835200001   -0.093400366604328    0.023012131452560   -0.124851949512959
150    8.712189954599999    2.598692026100000   15.054023835200001   -0.093519926071167   -0.023039124906063   -0.124801583588123
158    9.928480344900001    3.936826339400000   16.765937393600002    0.093557298183441    0.023003146052361    0.124783895909786
50    2.809515539400000    5.949837787100000   16.910411605800000    0.122634559869766    0.008377045392990    0.206763535737991
60    3.404041227099999    7.121198551700000   14.909550895800001   -0.122654043138027   -0.008512839674950   -0.206799149513245
130    0.608145655000000    5.866450914700000   16.765937393600002    0.093491397798061   -0.023048892617226    0.124747537076473
108    5.605411198500000    7.204585032000001   15.054023835200001   -0.093395777046680    0.022914789617062   -0.124796956777573
134    6.821702707300000    5.866450914700000   16.765937393600002    0.093497939407825   -0.022960491478443    0.124736987054348
54    9.023071933099999    5.949837787100000   16.910411605800000    0.122645929455757    0.008460715413094    0.206752270460129
64    9.617598366399999    7.121198551700000   14.909550895800001   -0.122656553983688   -0.008431032299995   -0.206711083650589
112   11.818968337799999    7.204585032000001   15.054023835200001   -0.093531355261803    0.022979140281677   -0.124774649739265
28    0.297262781700000    9.217596871800000   14.909550895800001   -0.122633859515190    0.008430555462837   -0.206732869148254
52    2.809515539400000   12.485355956499999   16.910411605800000    0.122591219842434    0.008402660489082    0.206886768341064
132    0.608145655000000   12.401968705000000   16.765937393600002    0.093497239053249   -0.022894658148289    0.124664731323719
148    2.498632815300000    9.134210391500000   15.054023835200001   -0.093522042036057   -0.022920712828636   -0.124741651117802
156    3.714923951199999   10.472344887900000   16.765937393600002    0.093476280570030    0.023017153143883    0.124728567898273
32    6.510819237499998    9.217596871800000   14.909550895800001   -0.122652411460876    0.008407697081566   -0.206795588135719
36    5.916293922700000   10.388957636400002   16.910411605800000    0.122641138732433   -0.008444741368294    0.206745475530624
136    6.821702707300000   12.401968705000000   16.765937393600002    0.093441724777222   -0.022902883589268    0.124671056866646
40   12.129850316399997   10.388957636400002   16.910411605800000    0.122634798288345   -0.008445113897324    0.206727117300034
56    9.023071933099999   12.485355956499999   16.910411605800000    0.122643783688545    0.008446872234344    0.206736788153648
152    8.712189954599999    9.134210391500000   15.054023835200001   -0.093488976359367   -0.022973053157330   -0.124736331403255
160    9.928480344900001   10.472344887900000   16.765937393600002    0.093500971794128    0.022964656352997    0.124744713306427
74    2.809254619699999    2.831604665700000   18.561644792599999   -0.017799148336053    0.065406680107117   -0.000021969899535
98    3.714923951199999    3.936826339400000   20.357352191600000    0.093522913753986    0.022975049912930   -0.124823674559593
114    3.656442017100000    0.695810490500000   18.561644792599999    0.022853797301650   -0.070364445447922   -0.000077834120020
178    0.549663671100000    2.571948633400000   18.561644792599999    0.022860737517476    0.070377089083195   -0.000084381783381
10    5.916293922700000    3.853439467000000   20.212877979400002    0.122630581259727   -0.008453071117401   -0.206710845232010
82    5.916033189399998    0.436154327500000   18.561644792599999   -0.017805177718401   -0.065401136875153   -0.000003277324140
182    6.763220400299998    2.571948633400000   18.561644792599999    0.022864483296871    0.070355504751205   -0.000027962261811
14   12.129850316399997    3.853439467000000   20.212877979400002    0.122632563114166   -0.008476942777634   -0.206714719533920
78    9.022811199800000    2.831604665700000   18.561644792599999   -0.017809996381402    0.065394468605518   -0.000001661013812
86   12.129589583100000    0.436154327500000   18.561644792599999   -0.017808824777603   -0.065404742956161    0.000005343093562
102    9.928480344900001    3.936826339400000   20.357352191600000    0.093489155173302    0.022959120571613   -0.124775305390358
118    9.869998783600000    0.695810490500000   18.561644792599999    0.022870223969221   -0.070355072617531   -0.000016713514924
2    2.809515539400000    5.949837787100000   20.212877979400002    0.122638054192066    0.008465155959129   -0.206722378730774
116    3.656442017100000    7.231328999700000   18.561644792599999    0.022868134081364   -0.070364631712437   -0.000025211771572
162    0.608145655000000    5.866450914700000   20.357352191600000    0.093497261404991   -0.022946521639824   -0.124781161546707
84    5.916033189399998    6.971672392300000   18.561644792599999   -0.017805971205235   -0.065401397645473   -0.000011277207705
166    6.821702707300000    5.866450914700000   20.357352191600000    0.093509256839752   -0.023000515997410   -0.124805010855198
6    9.023071933099999    5.949837787100000   20.212877979400002    0.122630059719086    0.008456245064735   -0.206722974777222
88   12.129589583100000    6.971672392300000   18.561644792599999   -0.017810707911849   -0.065390616655350   -0.000001714695713
120    9.869998783600000    7.231328999700000   18.561644792599999    0.022868135944009   -0.070361793041229   -0.000030001625419
4    2.809515539400000   12.485355956499999   20.212877979400002    0.122631005942822    0.008453845977783   -0.206707045435905
76    2.809254619699999    9.367123031200000   18.561644792599999   -0.017800711095333    0.065394356846809    0.000001837965101
100    3.714923951199999   10.472344887900000   20.357352191600000    0.093529656529427    0.022991903126240   -0.124829165637493
164    0.608145655000000   12.401968705000000   20.357352191600000    0.093515075743198   -0.022996626794338   -0.124821968376637
180    0.549663671100000    9.107466423800000   18.561644792599999    0.022870380431414    0.070349276065826   -0.000022801803425
12    5.916293922700000   10.388957636400002   20.212877979400002    0.122627630829811   -0.008458107709885   -0.206719785928726
168    6.821702707300000   12.401968705000000   20.357352191600000    0.093499265611172   -0.022980451583862   -0.124799668788910
184    6.763220400299998    9.107466423800000   18.561644792599999    0.022854261100292    0.070372030138969   -0.000010855728760
8    9.023071933099999   12.485355956499999   20.212877979400002    0.122641891241074    0.008453562855721   -0.206724122166634
16   12.129850316399997   10.388957636400002   20.212877979400002    0.122638344764709   -0.008456975221634   -0.206709221005440
80    9.022811199800000    9.367123031200000   18.561644792599999   -0.017791869118810    0.065397545695305   -0.000000841449946
104    9.928480344900001   10.472344887900000   20.357352191600000    0.093514844775200    0.022983424365520   -0.124802716076374
