ITEM: TIMESTEP
0
ITEM: NUMBER OF ATOMS
192
ITEM: BOX BOUNDS xy xz yz pp pp pp
0.0000000000000000e+00 1.2427113533000000e+01 0.0000000000000000e+00
0.0000000000000000e+00 1.3071036338800001e+01 0.0000000000000000e+00
0.0000000000000000e+00 2.1213308334400001e+01 0.0000000000000000e+00
ITEM: ATOMS id xu yu zu fx fy fz
17    0.297262781700000    2.682078702400000    1.000430206500000   -0.122654333710670    0.008570775389671    0.206692755222321
41    3.404041227099999    0.585680473800000    1.000430206500000   -0.122669219970703   -0.008454725146294    0.206581532955170
89    3.404301960299999    3.703913307600000    2.651663541800000    0.017875999212265   -0.065409630537033   -0.000120404642075
137    2.498632815300000    2.598692026100000    0.855957012500000   -0.093526110053062   -0.022894658148289    0.124762281775475
21    6.510819237499998    2.682078702400000    1.000430206500000   -0.122712135314941    0.008548319339752    0.206640884280205
169    5.605411198500000    0.669067150100000    0.855957012500000   -0.093411780893803    0.022900760173798    0.124735556542873
185    5.663893132700000    3.963569536000000    2.651663541800000   -0.022965220734477   -0.070304587483406    0.000019716098905
45    9.617598366399999    0.585680473800000    1.000430206500000   -0.122679658234119   -0.008508995175362    0.206685811281204
93    9.617859099700000    3.703913307600000    2.651663541800000    0.017848936840892   -0.065392822027206   -0.000006359536201
141    8.712189954599999    2.598692026100000    0.855957012500000   -0.093413054943085   -0.022925801575184    0.124717652797699
173   11.818968337799999    0.669067150100000    0.855957012500000   -0.093507401645184    0.022956833243370    0.124750308692455
189   11.877449899200000    3.963569536000000    2.651663541800000   -0.022889593616128   -0.070356152951717   -0.000049407695769
43    3.404041227099999    7.121198551700000    1.000430206500000   -0.122661165893078   -0.008517161011696    0.206661254167557
65    0.297523738700000    6.099363946500000    2.651663541800000    0.017842704430223    0.065375298261642   -0.000021603889763
121    2.557114749400000    5.839707718100000    2.651663541800000   -0.022903721779585    0.070187792181969   -0.000033887336031
69    6.511080716399999    6.099363946500000    2.651663541800000    0.017819918692112    0.065354548394680   -0.000014646910131
171    5.605411198500000    7.204585032000001    0.855957012500000   -0.093438699841499    0.023018628358841    0.124753922224045
47    9.617598366399999    7.121198551700000    1.000430206500000   -0.122603178024292   -0.008538022637367    0.206696748733521
125    8.770671515900000    5.839707718100000    2.651663541800000   -0.022890523076057    0.070326291024685   -0.000022504944354
175   11.818968337799999    7.204585032000001    0.855957012500000   -0.093523122370243    0.022969253361225    0.124724484980106
19    0.297262781700000    9.217596871800000    1.000430206500000   -0.122690945863724    0.008459433913231    0.206634879112244
67    0.297523738700000   12.634882115900002    2.651663541800000    0.017883459106088    0.065460279583931    0.000089192297310
91    3.404301960299999   10.239431477000000    2.651663541800000    0.017762664705515   -0.065420903265476    0.000104101476609
123    2.557114749400000   12.375225508500000    2.651663541800000   -0.023023847490549    0.070015057921410    0.001496465178207
139    2.498632815300000    9.134210391500000    0.855957012500000   -0.093537233769894   -0.022982060909271    0.124725177884102
23    6.510819237499998    9.217596871800000    1.000430206500000   -0.122751519083977    0.008473038673401    0.206734746694565
71    6.511080716399999   12.634882115900002    2.651663541800000    0.017795354127884    0.065356470644474   -0.000109160318971
187    5.663893132700000   10.499088084400002    2.651663541800000   -0.022801104933023   -0.070389933884144   -0.000083078630269
95    9.617859099700000   10.239431477000000    2.651663541800000    0.017843883484602   -0.065380372107029    0.000022755470127
127    8.770671515900000   12.375225508500000    2.651663541800000   -0.022873900830746    0.070278085768223   -0.000086106359959
143    8.712189954599999    9.134210391500000    0.855957012500000   -0.093464016914368   -0.022920168936253    0.124733574688435
191   11.877449899200000   10.499088084400002    2.651663541800000   -0.022988056764007   -0.070251628756523   -0.000130883330712
25    0.297262781700000    2.682078702400000    4.302896728600000   -0.122887544333935    0.008430600166321   -0.206513911485672
57    3.404041227099999    0.585680473800000    4.302896728600000   -0.122874341905117   -0.009338960051537   -0.206240415573120
145    2.498632815300000    2.598692026100000    4.447369986200000   -0.093997068703175   -0.023741520941257   -0.123917244374752
153    3.714923951199999    3.936826339400000    6.159283862799999    0.091866075992584    0.017958767712116    0.131030201911926
29    6.510819237499998    2.682078702400000    4.302896728600000   -0.122879356145859    0.008599027991295   -0.206770658493042
33    5.916293922700000    3.853439467000000    6.303757438599999    0.123234421014786   -0.007791593670845    0.206341743469238
105    5.605411198500000    0.669067150100000    4.447369986200000   -0.093719042837620    0.022577933967113   -0.124122962355614
37   12.129850316399997    3.853439467000000    6.303757438599999    0.122346527874470   -0.007975995540619    0.205888539552689
61    9.617598366399999    0.585680473800000    4.302896728600000   -0.122481599450111   -0.008476391434669   -0.206707820296288
109   11.818968337799999    0.669067150100000    4.447369986200000   -0.093736156821251    0.023066468536854   -0.125055357813835
149    8.712189954599999    2.598692026100000    4.447369986200000   -0.093440994620323   -0.022908002138138   -0.124733760952950
157    9.928480344900001    3.936826339400000    6.159283862799999    0.093578279018402    0.022910058498383    0.124767787754536
49    2.809515539400000    5.949837787100000    6.303757438599999    0.122277207672596    0.009009078145027    0.206905215978622
59    3.404041227099999    7.121198551700000    4.302896728600000   -0.122687593102455   -0.008392676711082   -0.206566751003265
129    0.608145655000000    5.866450914700000    6.159283862799999    0.093552157282829   -0.022901877760887    0.124838724732399
107    5.605411198500000    7.204585032000001    4.447369986200000   -0.093485891819000    0.022873252630234   -0.124755278229713
133    6.821702707300000    5.866450914700000    6.159283862799999    0.093407981097698   -0.023067541420460    0.124785088002682
53    9.023071933099999    5.949837787100000    6.303757438599999    0.122726425528526    0.008554473519325    0.206643521785736
63    9.617598366399999    7.121198551700000    4.302896728600000   -0.122626706957817   -0.008570343255997   -0.206639498472214
111   11.818968337799999    7.204585032000001    4.447369986200000   -0.093648776412010    0.022837646305561   -0.124820299446583
27    0.297262781700000    9.217596871800000    4.302896728600000   -0.122604943811893    0.008646830916405   -0.206594645977020
51    2.809515539400000   12.485355956499999    6.303757438599999    0.112876690924168   -0.007340550422668    0.184083983302116
131    0.608145655000000   12.401968705000000    6.159283862799999    0.095181912183762   -0.023801006376743    0.125067532062531
147    2.498632815300000    9.134210391500000    4.447369986200000   -0.093301959335804   -0.022475577890873   -0.124596722424030
155    3.714923951199999   10.472344887900000    6.159283862799999    0.093015402555466    0.023508772253990    0.124564148485661
31    6.510819237499998    9.217596871800000    4.302896728600000   -0.122573174536228    0.008561149239540   -0.206679046154022
35    5.916293922700000   10.388957636400002    6.303757438599999    0.121525704860687   -0.008311063051224    0.206381350755692
135    6.821702707300000   12.401968705000000    6.159283862799999    0.093518987298012   -0.023333460092545    0.124383077025414
39   12.129850316399997   10.388957636400002    6.303757438599999    0.122987337410450   -0.007671654224396    0.206630945205688
55    9.023071933099999   12.485355956499999    6.303757438599999    0.122496202588081    0.008423596620560    0.206639647483826
151    8.712189954599999    9.134210391500000    4.447369986200000   -0.093446902930737   -0.022829227149487   -0.124673619866371
159    9.928480344900001   10.472344887900000    6.159283862799999    0.093505114316940    0.022780612111092    0.124711617827415
73    2.809254619699999    2.831604665700000    7.954990625400001   -0.011286835186183    0.051738575100899   -0.000007835216820
97    3.714923951199999    3.936826339400000    9.750697388000001    0.091855540871620    0.018001183867455   -0.131031259894371
113    3.656442017100000    0.685810490500000    7.954990625400001    0.031042546033859   -0.011159928515553    0.000033371383324
177    0.549663671100000    2.571948633400000    7.954990625400001    0.031692724674940    0.068645566701889   -0.000005951849744
9    5.916293922700000    3.853439467000000    9.606223812200000    0.123247802257538   -0.007770538330078   -0.206325113773346
81    5.916033189399998    0.436154327500000    7.954990625400001   -0.014349774457514   -0.065828658640385   -0.000017569866031
181    6.763220400299998    2.571948633400000    7.954990625400001    0.020100835710764    0.068690530955791   -0.000014197546989
13   12.129850316399997    3.853439467000000    9.606223812200000    0.122312180697918   -0.007933408021927   -0.205838084220886
77    9.022811199800000    2.831604665700000    7.954990625400001   -0.017446991056204    0.065408453345299   -0.000010829884559
85   12.129589583100000    0.436154327500000    7.954990625400001   -0.017890954390168   -0.065814711153507   -0.000008469149179
101    9.928480344900001    3.936826339400000    9.750697388000001    0.093657724559307    0.022966928780079   -0.124790109694004
117    9.869998783600000    0.695810490500000    7.954990625400001    0.022913116961718   -0.070155784487724    0.000024918001145
1    2.809515539400000    5.949837787100000    9.606223812200000    0.122294709086418    0.008973255753517   -0.206946313381195
115    3.656442017100000    7.231328999700000    7.954990625400001    0.022820679470897   -0.070199348032475    0.000007529743016
161    0.608145655000000    5.866450914700000    9.750697388000001    0.093506380915642   -0.022933006286621   -0.124802187085152
83    5.916033189399998    6.971672392300000    7.954990625400001   -0.017824089154601   -0.065288081765175    0.000002281274647
165    6.821702707300000    5.866450914700000    9.750697388000001    0.093478910624981   -0.023048326373100   -0.124777711927891
5    9.023071933099999    5.949837787100000    9.606223812200000    0.122654788196087    0.008512750267982   -0.206681668758392
87   12.129589583100000    6.971672392300000    7.954990625400001   -0.017847670242190   -0.065375737845898   -0.000003996126452
119    9.869998783600000    7.231328999700000    7.954990625400001    0.022949971258640   -0.070297859609127    0.000013657845557
3    2.809515539400000   12.485355956499999    9.606223812200000    0.112869761884212   -0.007356524467468   -0.184101030230522
75    2.809254619699999    9.367123031200000    7.954990625400001   -0.017637299373746    0.065376311540604    0.000009709037840
99    3.714923951199999   10.472344887900000    9.750697388000001    0.093025192618370    0.023531064391136   -0.124542318284512
163    0.608145655000000   12.401968705000000    9.750697388000001    0.095215886831284   -0.023738496005535   -0.125037208199501
179    0.549663671100000    9.107466423800000    7.954990625400001    0.022951170802116    0.069987535476685   -0.000000143190846
11    5.916293922700000   10.388957636400002    9.606223812200000    0.121504284441471   -0.008303627371788   -0.206398457288742
167    6.821702707300000   12.401968705000000    9.750697388000001    0.093498803675175   -0.023387596011162   -0.124364748597145
183    6.763220400299998    9.107466423800000    7.954990625400001    0.023106882348657    0.070028528571129    0.000016035977751
7    9.023071933099999   12.485355956499999    9.606223812200000    0.122540168464184    0.008499354124069   -0.206640705466270
15   12.129850316399997   10.388957636400002    9.606223812200000    0.123021692037582   -0.007739141583443   -0.206620097160339
79    9.022811199800000    9.367123031200000    7.954990625400001   -0.017854005098343    0.065375089645386   -0.000007245689631
103    9.928480344900001   10.472344887900000    9.750697388000001    0.093481317162514    0.022757716476917   -0.124705702066422
18    0.297262781700000    2.682078702400000   11.607084522199999   -0.122876673936844    0.008450776338577    0.206467717885971
42    3.404041227099999    0.585680473800000   11.607084522199999   -0.122986674308777   -0.009328693151474    0.206241577863693
90    3.404301960299999    3.703913307600000   13.258317709000000    0.017846614122391   -0.065422363579273    0.000117893738206
138    2.498632815300000    2.598692026100000   11.462611582800001   -0.093988679349422   -0.023736648261547    0.123965322971344
22    6.510819237499998    2.682078702400000   11.607084522199999   -0.122861728072166    0.008532360196114    0.206748485565186
170    5.605411198500000    0.669067150100000   11.462611582800001   -0.093592986464500    0.022591888904572    0.124152272939682
186    5.663893132700000    3.963569536000000   13.258317709000000   -0.022988494485617   -0.070289015769958    0.000037797261029
46    9.617598366399999    0.585680473800000   11.607084522199999   -0.122603267431259   -0.008502915501595    0.206737279891968
94    9.617859099700000    3.703913307600000   13.258317709000000    0.017803255468607   -0.065365411341190    0.000024053733796
142    8.712189954599999    2.598692026100000   11.462611582800001   -0.093439511954784   -0.022969253361225    0.124764919281006
174   11.818968337799999    0.669067150100000   11.462611582800001   -0.093663722276688    0.023005485534668    0.125072672963142
190   11.877449899200000    3.963569536000000   13.258317709000000   -0.022884484380484   -0.070295661687851    0.000047858804464
44    3.404041227099999    7.121198551700000   11.607084522199999   -0.122729241847992   -0.008336916565895    0.206639483571053
66    0.297523738700000    6.099363946500000   13.258317709000000    0.017827192321420    0.065395899116993    0.000022601336241
122    2.557114749400000    5.839707718100000   13.258317709000000   -0.022893942892551    0.070239260792732    0.000049889815273
70    6.511080716399999    6.099363946500000   13.258317709000000    0.017815336585045    0.065398395061493    0.000016791746020
172    5.605411198500000    7.204585032000001   11.462611582800001   -0.093432150781155    0.022882185876369    0.124783411622047
48    9.617598366399999    7.121198551700000   11.607084522199999   -0.122625455260277   -0.008473351597786    0.206727251410484
126    8.770671515900000    5.839707718100000   13.258317709000000   -0.022859955206513    0.070365957915783    0.000012906733900
176   11.818968337799999    7.204585032000001   11.462611582800001   -0.093597494065762    0.022956170141697    0.124849677085876
20    0.297262781700000    9.217596871800000   11.607084522199999   -0.122585132718086    0.008556708693504    0.206683799624443
68    0.297523738700000   12.634882115900002   13.258317709000000    0.017860110849142    0.065457783639431   -0.000074004754424
92    3.404301960299999   10.239431477000000   13.258317709000000    0.017712367698550   -0.065425164997578   -0.000094217371952
124    2.557114749400000   12.375225508500000   13.258317709000000   -0.023005455732346    0.070013225078583   -0.001408267649822
140    2.498632815300000    9.134210391500000   11.462611582800001   -0.093390472233295   -0.022479310631752    0.124625369906425
24    6.510819237499998    9.217596871800000   11.607084522199999   -0.122496530413628    0.008518919348717    0.206695258617401
72    6.511080716399999   12.634882115900002   13.258317709000000    0.017823906615376    0.065331920981407    0.000115068629384
188    5.663893132700000   10.499088084400002   13.258317709000000   -0.022781398147345   -0.070354744791985    0.000082371756434
96    9.617859099700000   10.239431477000000   13.258317709000000    0.017819184809923   -0.065395303070545   -0.000000330153853
128    8.770671515900000   12.375225508500000   13.258317709000000   -0.022882413119078    0.070340313017368    0.000052216000768
144    8.712189954599999    9.134210391500000   11.462611582800001   -0.093492738902569   -0.022930346429348    0.124722614884377
192   11.877449899200000   10.499088084400002   13.258317709000000   -0.022898383438587   -0.070350773632526    0.000090657966211
26    0.297262781700000    2.682078702400000   14.909550895800001   -0.122622437775135    0.008439078927040   -0.206654965877533
58    3.404041227099999    0.585680473800000   14.909550895800001   -0.122643694281578   -0.008425578474998   -0.206654608249664
146    2.498632815300000    2.598692026100000   15.054023835200001   -0.093549452722073   -0.022939980030060   -0.124772384762764
154    3.714923951199999    3.936826339400000   16.765937393600002    0.093491777777672    0.022966183722019    0.124751865863800
30    6.510819237499998    2.682078702400000   14.909550895800001   -0.122601971030235    0.008429467678070   -0.206661462783813
34    5.916293922700000    3.853439467000000   16.910411605800000    0.122645400464535   -0.008453175425529    0.206718042492867
106    5.605411198500000    0.669067150100000   15.054023835200001   -0.093444824218750    0.022987946867943   -0.124745890498161
38   12.129850316399997    3.853439467000000   16.910411605800000    0.122649535536766   -0.008469343185425    0.206732481718063
62    9.617598366399999    0.585680473800000   14.909550895800001   -0.122634127736092   -0.008449494838715   -0.206701487302780
110   11.818968337799999    0.669067150100000   15.054023835200001   -0.093505270779133    0.023008055984974   -0.124758429825306
150    8.712189954599999    2.598692026100000   15.054023835200001   -0.093547433614731   -0.022991247475147   -0.124743469059467
158    9.928480344900001    3.936826339400000   16.765937393600002    0.093508154153824    0.022988297045231    0.124761991202831
50    2.809515539400000    5.949837787100000   16.910411605800000    0.122641846537590    0.008457571268082    0.206738710403442
60    3.404041227099999    7.121198551700000   14.909550895800001   -0.122624889016151   -0.008446916937828   -0.206709757447243
130    0.608145655000000    5.866450914700000   16.765937393600002    0.093519061803818   -0.022974312305450    0.124762445688248
108    5.605411198500000    7.204585032000001   15.054023835200001   -0.093507312238216    0.022977329790592   -0.124746337532997
134    6.821702707300000    5.866450914700000   16.765937393600002    0.093507811427116   -0.022960022091866    0.124751850962639
54    9.023071933099999    5.949837787100000   16.910411605800000    0.122641272842884    0.008453443646431    0.206742718815804
64    9.617598366399999    7.121198551700000   14.909550895800001   -0.122638471424580   -0.008442968130112   -0.206730663776398
112   11.818968337799999    7.204585032000001   15.054023835200001   -0.093526184558868    0.023007608950138   -0.124768964946270
28    0.297262781700000    9.217596871800000   14.909550895800001   -0.122653633356094    0.008435681462288   -0.206714734435081
52    2.809515539400000   12.485355956499999   16.910411605800000    0.122640237212181    0.008464574813843    0.206697016954422
132    0.608145655000000   12.401968705000000   16.765937393600002    0.093510314822197   -0.022969022393227    0.124748110771179
148    2.498632815300000    9.134210391500000   15.054023835200001   -0.093530736863613   -0.023010537028313   -0.124732583761215
156    3.714923951199999   10.472344887900000   16.765937393600002    0.093504525721073    0.022968903183937    0.124745436012745
32    6.510819237499998    9.217596871800000   14.909550895800001   -0.122635737061501    0.008441478013992   -0.206741034984589
36    5.916293922700000   10.388957636400002   16.910411605800000    0.122638761997223   -0.008453905582428    0.206733688712120
136    6.821702707300000   12.401968705000000   16.765937393600002    0.093498378992081   -0.022963456809521    0.124733269214630
40   12.129850316399997   10.388957636400002   16.910411605800000    0.122638508677483   -0.008450597524643    0.206725299358368
56    9.023071933099999   12.485355956499999   16.910411605800000    0.122636064887047    0.008451238274574    0.206738457083702
152    8.712189954599999    9.134210391500000   15.054023835200001   -0.093503721058369   -0.022975131869316   -0.124737784266472
160    9.928480344900001   10.472344887900000   16.765937393600002    0.093499355018139    0.022963136434555    0.124743871390820
74    2.809254619699999    2.831604665700000   18.561644792599999   -0.017797796055675    0.065406009554863   -0.000001735053957
98    3.714923951199999    3.936826339400000   20.357352191600000    0.093514047563076    0.022959411144257   -0.124788284301758
114    3.656442017100000    0.695810490500000   18.561644792599999    0.022869160398841   -0.070352233946323   -0.000020706327632
178    0.549663671100000    2.571948633400000   18.561644792599999    0.022865958511829    0.070357687771320   -0.000027363421395
10    5.916293922700000    3.853439467000000   20.212877979400002    0.122630000114441   -0.008450955152512   -0.206714570522308
82    5.916033189399998    0.436154327500000   18.561644792599999   -0.017803130671382   -0.065399810671806    0.000001644715667
182    6.763220400299998    2.571948633400000   18.561644792599999    0.022870879620314    0.070355631411076   -0.000007898546755
14   12.129850316399997    3.853439467000000   20.212877979400002    0.122633986175060   -0.008481368422508   -0.206716522574425
78    9.022811199800000    2.831604665700000   18.561644792599999   -0.017805736511946    0.065396033227444   -0.000007011462003
86   12.129589583100000    0.436154327500000   18.561644792599999   -0.017806252464652   -0.065404333174229    0.000005358924682
102    9.928480344900001    3.936826339400000   20.357352191600000    0.093488082289696    0.022957891225815   -0.124770507216454
118    9.869998783600000    0.695810490500000   18.561644792599999    0.022865891456604   -0.070357173681259   -0.000015938654542
2    2.809515539400000    5.949837787100000   20.212877979400002    0.122639432549477    0.008467808365822   -0.206722006201744
116    3.656442017100000    7.231328999700000   18.561644792599999    0.022867284715176   -0.070359274744987   -0.000017574247977
162    0.608145655000000    5.866450914700000   20.357352191600000    0.093497827649117   -0.022947825491428   -0.124771617352962
84    5.916033189399998    6.971672392300000   18.561644792599999   -0.017805373296142   -0.065399356186390   -0.000012254133253
166    6.821702707300000    5.866450914700000   20.357352191600000    0.093505375087261   -0.022995986044407   -0.124796651303768
6    9.023071933099999    5.949837787100000   20.212877979400002    0.122630037367344    0.008456304669380   -0.206722661852837
88   12.129589583100000    6.971672392300000   18.561644792599999   -0.017808085307479   -0.065392084419727   -0.000004464895483
120    9.869998783600000    7.231328999700000   18.561644792599999    0.022865310311317   -0.070360444486141   -0.000033019110560
4    2.809515539400000   12.485355956499999   20.212877979400002    0.122637435793877    0.008465096354485   -0.206670716404915
76    2.809254619699999    9.367123031200000   18.561644792599999   -0.017802052199841    0.065395608544350    0.000000407919288
100    3.714923951199999   10.472344887900000   20.357352191600000    0.093529723584652    0.022992216050625   -0.124818764626980
164    0.608145655000000   12.401968705000000   20.357352191600000    0.093519814312458   -0.022993534803391   -0.124814987182617
180    0.549663671100000    9.107466423800000   18.561644792599999    0.022868370637298    0.070348709821701   -0.000023466302082
12    5.916293922700000   10.388957636400002   20.212877979400002    0.122631400823593   -0.008462429046631   -0.206720829010010
168    6.821702707300000   12.401968705000000   20.357352191600000    0.093486040830612   -0.022965177893639   -0.124772876501083
184    6.763220400299998    9.107466423800000   18.561644792599999    0.022854540497065    0.070370219647884   -0.000012801960111
8    9.023071933099999   12.485355956499999   20.212877979400002    0.122642576694489    0.008453801274300   -0.206727162003517
16   12.129850316399997   10.388957636400002   20.212877979400002    0.122638471424580   -0.008463218808174   -0.206703692674637
80    9.022811199800000    9.367123031200000   18.561644792599999   -0.017791874706745    0.065398350358009   -0.000000545755029
104    9.928480344900001   10.472344887900000   20.357352191600000    0.093513302505016    0.022982619702816   -0.124801620841026
