ITEM: TIMESTEP
0
ITEM: NUMBER OF ATOMS
192
ITEM: BOX BOUNDS xy xz yz pp pp pp
0.0000000000000000e+00 1.2427113533000000e+01 0.0000000000000000e+00
0.0000000000000000e+00 1.3071036338800001e+01 0.0000000000000000e+00
0.0000000000000000e+00 2.1213308334400001e+01 0.0000000000000000e+00
ITEM: ATOMS id xu yu zu fx fy fz
17    0.297262781700000    2.682078702400000    1.000430206500000   -0.122644342482090    0.008545443415642    0.206722110509872
41    3.404041227099999    0.585680473800000    1.000430206500000   -0.122662916779518   -0.008478358387947    0.206657320261002
89    3.404301960299999    3.703913307600000    2.651663541800000    0.017833674326539   -0.065377116203308    0.000004249392077
137    2.498632815300000    2.598692026100000    0.855957012500000   -0.093517109751701   -0.022952765226364    0.124719545245171
21    6.510819237499998    2.682078702400000    1.000430206500000   -0.122717842459679    0.008524253964424    0.206656783819199
169    5.605411198500000    0.669067150100000    0.855957012500000   -0.093468040227890    0.022905312478542    0.124737434089184
185    5.663893132700000    3.963569536000000    2.651663541800000   -0.022872935980558   -0.070325523614883    0.000043025705963
45    9.617598366399999    0.585680473800000    1.000430206500000   -0.122684165835381   -0.008507043123245    0.206705555319786
93    9.617859099700000    3.703913307600000    2.651663541800000    0.017853897064924   -0.065394066274166   -0.000004980014637
141    8.712189954599999    2.598692026100000    0.855957012500000   -0.093407668173313   -0.022935137152672    0.124715968966484
173   11.818968337799999    0.669067150100000    0.855957012500000   -0.093504652380943    0.022937312722206    0.124729938805103
189   11.877449899200000    3.963569536000000    2.651663541800000   -0.022896837443113   -0.070355854928493   -0.000035061602830
43    3.404041227099999    7.121198551700000    1.000430206500000   -0.122679829597473   -0.008527457714081    0.206688567996025
65    0.297523738700000    6.099363946500000    2.651663541800000    0.017847897484899    0.065389975905418   -0.000026548281312
121    2.557114749400000    5.839707718100000    2.651663541800000   -0.022873209789395    0.070345304906368    0.000129806809127
69    6.511080716399999    6.099363946500000    2.651663541800000    0.017814293503761    0.065362364053726   -0.000000079162419
171    5.605411198500000    7.204585032000001    0.855957012500000   -0.093430094420910    0.023016162216663    0.124746955931187
47    9.617598366399999    7.121198551700000    1.000430206500000   -0.122597105801105   -0.008542537689209    0.206694230437279
125    8.770671515900000    5.839707718100000    2.651663541800000   -0.022891256958246    0.070337697863579   -0.000010866671801
175   11.818968337799999    7.204585032000001    0.855957012500000   -0.093529209494591    0.022963047027588    0.124718159437180
19    0.297262781700000    9.217596871800000    1.000430206500000   -0.122680544853210    0.008467167615891    0.206649199128151
67    0.297523738700000   12.634882115900002    2.651663541800000    0.017832741141319    0.065396368503571    0.000012554228306
91    3.404301960299999   10.239431477000000    2.651663541800000    0.017856124788523   -0.065390162169933    0.000025463643397
123    2.557114749400000   12.375225508500000    2.651663541800000   -0.022909572347999    0.070311702787876    0.000006816683708
139    2.498632815300000    9.134210391500000    0.855957012500000   -0.093513965606689   -0.022946171462536    0.124730706214905
23    6.510819237499998    9.217596871800000    1.000430206500000   -0.122750952839851    0.008481308817863    0.206725910305977
71    6.511080716399999   12.634882115900002    2.651663541800000    0.017779327929020    0.065419107675552   -0.000014827586710
187    5.663893132700000   10.499088084400002    2.651663541800000   -0.022890189662576   -0.070400781929493   -0.000014858786017
95    9.617859099700000   10.239431477000000    2.651663541800000    0.017839396372437   -0.065378509461880    0.000014424324036
127    8.770671515900000   12.375225508500000    2.651663541800000   -0.022854920476675    0.070288211107254   -0.000061804894358
143    8.712189954599999    9.134210391500000    0.855957012500000   -0.093462906777859   -0.022918470203876    0.124734945595264
191   11.877449899200000   10.499088084400002    2.651663541800000   -0.022968072444201   -0.070261359214783   -0.000060997113906
25    0.297262781700000    2.682078702400000    4.302896728600000   -0.122789718210697    0.008486375212669   -0.206777513027191
57    3.404041227099999    0.585680473800000    4.302896728600000   -0.122597858309746   -0.008615955710411   -0.206710755825043
145    2.498632815300000    2.598692026100000    4.447369986200000   -0.093460813164711   -0.022846743464470   -0.125102862715721
153    3.714923951199999    3.936826339400000    6.159283862799999    0.094831347465515    0.024861834943295    0.122272707521915
29    6.510819237499998    2.682078702400000    4.302896728600000   -0.122658006846905    0.008483052253723   -0.206734418869019
33    5.916293922700000    3.853439467000000    6.303757438599999    0.122512869536877   -0.008550435304642    0.206781864166260
105    5.605411198500000    0.669067150100000    4.447369986200000   -0.093490473926067    0.023030459880829   -0.124697089195251
37   12.129850316399997    3.853439467000000    6.303757438599999    0.122588358819485   -0.008734121918678    0.206936165690422
61    9.617598366399999    0.585680473800000    4.302896728600000   -0.122585333883762   -0.008508160710335   -0.206673994660378
109   11.818968337799999    0.669067150100000    4.447369986200000   -0.093511387705803    0.022927880287170   -0.124731354415417
149    8.712189954599999    2.598692026100000    4.447369986200000   -0.093466557562351   -0.022906966507435   -0.124789021909237
157    9.928480344900001    3.936826339400000    6.159283862799999    0.093519583344460    0.022881984710693    0.124758318066597
49    2.809515539400000    5.949837787100000    6.303757438599999    0.122236356139183    0.007648035883904    0.205355912446976
59    3.404041227099999    7.121198551700000    4.302896728600000   -0.122649230062962   -0.008544147014618   -0.206534773111343
129    0.608145655000000    5.866450914700000    6.159283862799999    0.093811191618443   -0.023162238299847    0.125127151608467
107    5.605411198500000    7.204585032000001    4.447369986200000   -0.093526303768158    0.022982656955719   -0.124738171696663
133    6.821702707300000    5.866450914700000    6.159283862799999    0.093354523181915   -0.023161217570305    0.124723449349403
53    9.023071933099999    5.949837787100000    6.303757438599999    0.122673138976097    0.008545234799385    0.206634819507599
63    9.617598366399999    7.121198551700000    4.302896728600000   -0.122616447508335   -0.008548900485039   -0.206672102212906
111   11.818968337799999    7.204585032000001    4.447369986200000   -0.093610510230064    0.022875778377056   -0.124777376651764
27    0.297262781700000    9.217596871800000    4.302896728600000   -0.122644670307636    0.008549511432648   -0.206698924303055
51    2.809515539400000   12.485355956499999    6.303757438599999    0.122914969921112    0.008940592408180    0.207172229886055
131    0.608145655000000   12.401968705000000    6.159283862799999    0.093424469232559   -0.022830598056316    0.124792620539665
147    2.498632815300000    9.134210391500000    4.447369986200000   -0.093371696770191   -0.023044310510159   -0.124653868377209
155    3.714923951199999   10.472344887900000    6.159283862799999    0.093521207571030    0.022820927202702    0.124774098396301
31    6.510819237499998    9.217596871800000    4.302896728600000   -0.122728817164898    0.008492276072502   -0.206712424755096
35    5.916293922700000   10.388957636400002    6.303757438599999    0.122632414102554   -0.008569613099098    0.206715643405914
135    6.821702707300000   12.401968705000000    6.159283862799999    0.093384601175785   -0.022795468568802    0.124923095107079
39   12.129850316399997   10.388957636400002    6.303757438599999    0.122656218707561   -0.008441597223282    0.206703677773476
55    9.023071933099999   12.485355956499999    6.303757438599999    0.122626252472401    0.008471116423607    0.206606149673462
151    8.712189954599999    9.134210391500000    4.447369986200000   -0.093433782458305   -0.022868975996971   -0.124706774950027
159    9.928480344900001   10.472344887900000    6.159283862799999    0.093483202159405    0.022865258157253    0.124731384217739
73    2.809254619699999    2.831604665700000    7.954990625400001   -0.022206638008356    0.060300543904305   -0.008281512185931
97    3.714923951199999    3.926826339400000    9.750697388000001    0.072377160191536    0.053445152938366   -0.106189474463463
113    3.656442017100000    0.695810490500000    7.954990625400001    0.023898271843791   -0.075363941490650   -0.002236336003989
177    0.549663671100000    2.571948633400000    7.954990625400001    0.019517892971635    0.069839403033257   -0.000553179532290
9    5.916293922700000    3.853439467000000    9.606223812200000    0.131388425827026   -0.008769735693932   -0.206202030181885
81    5.916033189399998    0.436154327500000    7.954990625400001   -0.018388569355011   -0.064989455044270    0.000266810879111
181    6.763220400299998    2.571948633400000    7.954990625400001    0.023823212832212    0.069480955600739   -0.001211644383147
13   12.129850316399997    3.853439467000000    9.606223812200000    0.122392497956753   -0.009985387325287   -0.206234216690063
77    9.022811199800000    2.831604665700000    7.954990625400001   -0.017768682911992    0.065489403903484    0.000162483192980
85   12.129589583100000    0.436154327500000    7.954990625400001   -0.017716312780976   -0.065435327589512    0.000055708303989
101    9.928480344900001    3.936826339400000    9.750697388000001    0.092929743230343    0.022368580102921   -0.123807348310947
117    9.869998783600000    0.695810490500000    7.954990625400001    0.022996764630079   -0.070186607539654    0.000018271384761
1    2.809515539400000    5.949837787100000    9.606223812200000    0.139428004622459   -0.023450061678886   -0.209543943405151
115    3.656442017100000    7.231328999700000    7.954990625400001    0.024028584361076   -0.070048138499260    0.001012377673760
161    0.608145655000000    5.866450914700000    9.750697388000001    0.090822502970695   -0.022830121219158   -0.124062523245811
83    5.916033189399998    6.971672392300000    7.954990625400001   -0.018285015597939   -0.065792068839073    0.000343462452292
165    6.821702707300000    5.866450914700000    9.750697388000001    0.093335248529911   -0.022787913680077   -0.124563075602055
5    9.023071933099999    5.949837787100000    9.606223812200000    0.122838258743286    0.008396670222282   -0.206666663289070
87   12.129589583100000    6.971672392300000    7.954990625400001   -0.017615905031562   -0.065352968871593   -0.000048255373258
119    9.869998783600000    7.231328999700000    7.954990625400001    0.022917686030269   -0.070389509201050    0.000138835981488
3    2.809515539400000   12.485355956499999    9.606223812200000    0.123313903808594    0.009400248527527   -0.205831572413445
75    2.809254619699999    9.367123031200000    7.954990625400001   -0.017833869904280    0.065385639667511    0.000104098580778
99    3.714923951199999   10.472344887900000    9.750697388000001    0.093461707234383    0.021287918090820   -0.124162115156651
163    0.608145655000000   12.401968705000000    9.750697388000001    0.093377858400345   -0.022574476897717   -0.124473944306374
179    0.549663671100000    9.107466423800000    7.954990625400001    0.022987294942141    0.070154666900635    0.000112976646051
11    5.916293922700000   10.388957636400002    9.606223812200000    0.122642293572426   -0.008621066808701   -0.206601500511169
167    6.821702707300000   12.401968705000000    9.750697388000001    0.093191117048264   -0.022639982402325   -0.124701544642448
183    6.763220400299998    9.107466423800000    7.954990625400001    0.022829420864582    0.070367209613323    0.000056838616729
7    9.023071933099999   12.485355956499999    9.606223812200000    0.122574627399445    0.008546262979507   -0.206660255789757
15   12.129850316399997   10.388957636400002    9.606223812200000    0.122723907232285   -0.008486732840538   -0.206652581691742
79    9.022811199800000    9.367123031200000    7.954990625400001   -0.017852906137705    0.065418586134911   -0.000032900366932
103    9.928480344900001   10.472344887900000    9.750697388000001    0.093473859131336    0.022841416299343   -0.124716110527515
18    0.297262781700000    2.682078702400000   11.607084522199999   -0.127978026866913    0.008684262633324    0.206797987222672
42    3.404041227099999    0.585680473800000   11.607084522199999   -0.120925448834896   -0.014313429594040    0.207224309444427
90    3.404301960299999    3.703913307600000   13.258317709000000    0.019102232530713   -0.064146213233471    0.002725706202909
138    2.498632815300000    2.598692026100000   11.462611582800001   -0.084636338055134   -0.012294359505177    0.114438615739346
22    6.510819237499998    2.682078702400000   11.607084522199999   -0.126307129859924    0.009345099329948    0.204449132084846
170    5.605411198500000    0.669067150100000   11.462611582800001   -0.093872703611851    0.023351483047009    0.124695129692554
186    5.663893132700000    3.963569536000000   13.258317709000000   -0.023085886612535   -0.070636026561260   -0.000121853314340
46    9.617598366399999    0.585680473800000   11.607084522199999   -0.122926235198975   -0.008147969841957    0.206692576408386
94    9.617859099700000    3.703913307600000   13.258317709000000    0.017672440037131   -0.065512150526047   -0.000239827204496
142    8.712189954599999    2.598692026100000   11.462611582800001   -0.093219980597496   -0.022286355495453    0.123976558446884
174   11.818968337799999    0.669067150100000   11.462611582800001   -0.093187794089317    0.022857487201691    0.124738134443760
190   11.877449899200000    3.963569536000000   13.258317709000000   -0.022683119401336   -0.070220008492470   -0.000087232328951
44    3.404041227099999    7.121198551700000   11.607084522199999   -0.122411578893661   -0.005260363221169    0.207064062356949
66    0.297523738700000    6.099363946500000   13.258317709000000    0.017588837072253    0.065281152725220    0.000233435072005
122    2.557114749400000    5.839707718100000   13.258317709000000   -0.023544041439891    0.069451309740543    0.003541418584064
70    6.511080716399999    6.099363946500000   13.258317709000000    0.017771421000361    0.065316639840603   -0.000148108229041
172    5.605411198500000    7.204585032000001   11.462611582800001   -0.092832051217556    0.023346856236458    0.125354558229446
48    9.617598366399999    7.121198551700000   11.607084522199999   -0.122794523835182   -0.008510529994965    0.206636011600494
126    8.770671515900000    5.839707718100000   13.258317709000000   -0.022812090814114    0.070358254015446   -0.000050826463848
176   11.818968337799999    7.204585032000001   11.462611582800001   -0.093103013932705    0.022993206977844    0.124464392662048
20    0.297262781700000    9.217596871800000   11.607084522199999   -0.122996315360069    0.008924350142479    0.206865355372429
68    0.297523738700000   12.634882115900002   13.258317709000000    0.017985377460718    0.065662890672684   -0.000163804739714
92    3.404301960299999   10.239431477000000   13.258317709000000    0.017887596040964   -0.065126724541187    0.000160042720381
124    2.557114749400000   12.375225508500000   13.258317709000000   -0.022912450134754    0.070775970816612   -0.000535543716978
140    2.498632815300000    9.134210391500000   11.462611582800001   -0.093582883477211   -0.021249122917652    0.125020205974579
24    6.510819237499998    9.217596871800000   11.607084522199999   -0.122181907296181    0.008888199925423    0.206796705722809
72    6.511080716399999   12.634882115900002   13.258317709000000    0.017694307491183    0.065479159355164   -0.000108037143946
188    5.663893132700000   10.499088084400002   13.258317709000000   -0.022796530276537   -0.070453017950058   -0.000092016998678
96    9.617859099700000   10.239431477000000   13.258317709000000    0.017804179340601   -0.065410748124123    0.000005084788427
128    8.770671515900000   12.375225508500000   13.258317709000000   -0.022843092679977    0.070374257862568    0.000010692973774
144    8.712189954599999    9.134210391500000   11.462611582800001   -0.093625448644161   -0.023004658520222    0.124752737581730
192   11.877449899200000   10.499088084400002   13.258317709000000   -0.022789141163230   -0.070398010313511   -0.000106088118628
26    0.297262781700000    2.682078702400000   14.909550895800001   -0.122546210885048    0.008281588554382   -0.206623136997223
58    3.404041227099999    0.585680473800000   14.909550895800001   -0.122534811496735   -0.008408680558205   -0.206694334745407
146    2.498632815300000    2.598692026100000   15.054023835200001   -0.093562550842762   -0.022940956056118   -0.125151604413986
154    3.714923951199999    3.936826339400000   16.765937393600002    0.093543216586113    0.022974118590355    0.124786242842674
30    6.510819237499998    2.682078702400000   14.909550895800001   -0.122696608304977    0.008445456624031   -0.206684261560440
34    5.916293922700000    3.853439467000000   16.910411605800000    0.122624747455120   -0.008436411619186    0.206697225570679
106    5.605411198500000    0.669067150100000   15.054023835200001   -0.093484796583652    0.023024395108223   -0.124836474657059
38   12.129850316399997    3.853439467000000   16.910411605800000    0.122623845934868   -0.008413553237915    0.206851661205292
62    9.617598366399999    0.585680473800000   14.909550895800001   -0.122587949037552   -0.008453026413918   -0.206701442599297
110   11.818968337799999    0.669067150100000   15.054023835200001   -0.093434177339077    0.022999182343483   -0.124810233712196
150    8.712189954599999    2.598692026100000   15.054023835200001   -0.093610465526581   -0.023008704185486   -0.124838173389435
158    9.928480344900001    3.936826339400000   16.765937393600002    0.093550801277161    0.023000195622444    0.124777436256409
50    2.809515539400000    5.949837787100000   16.910411605800000    0.122661389410496    0.008474230766296    0.206741094589233
60    3.404041227099999    7.121198551700000   14.909550895800001   -0.122509166598320   -0.008299827575684   -0.206647932529449
130    0.608145655000000    5.866450914700000   16.765937393600002    0.093486465513706   -0.023039370775223    0.124764867126942
108    5.605411198500000    7.204585032000001   15.054023835200001   -0.093704238533974    0.023046672344208   -0.124707140028477
134    6.821702707300000    5.866450914700000   16.765937393600002    0.093553975224495   -0.023026965558529    0.124826937913895
54    9.023071933099999    5.949837787100000   16.910411605800000    0.122641541063786    0.008458778262138    0.206733554601669
64    9.617598366399999    7.121198551700000   14.909550895800001   -0.122641846537590   -0.008438140153885   -0.206718862056732
112   11.818968337799999    7.204585032000001   15.054023835200001   -0.093518227338791    0.022971138358116   -0.124779783189297
28    0.297262781700000    9.217596871800000   14.909550895800001   -0.122653484344482    0.008420720696449   -0.206756874918938
52    2.809515539400000   12.485355956499999   16.910411605800000    0.122595652937889    0.008389845490456    0.206893950700760
132    0.608145655000000   12.401968705000000   16.765937393600002    0.093508608639240   -0.022907979786396    0.124675959348679
148    2.498632815300000    9.134210391500000   15.054023835200001   -0.093498781323433   -0.023131929337978   -0.124792441725731
156    3.714923951199999   10.472344887900000   16.765937393600002    0.093521900475025    0.023089572787285    0.124799549579620
32    6.510819237499998    9.217596871800000   14.909550895800001   -0.122651152312756    0.008485972881317   -0.206782102584839
36    5.916293922700000   10.388957636400002   16.910411605800000    0.122641921043396   -0.008460253477097    0.206727102398872
136    6.821702707300000   12.401968705000000   16.765937393600002    0.093452431261539   -0.022912301123142    0.124677896499634
40   12.129850316399997   10.388957636400002   16.910411605800000    0.122639246284962   -0.008444786071777    0.206728443503380
56    9.023071933099999   12.485355956499999   16.910411605800000    0.122641742229462    0.008450672030449    0.206732854247093
152    8.712189954599999    9.134210391500000   15.054023835200001   -0.093500122427940   -0.022991955280304   -0.124752648174763
160    9.928480344900001   10.472344887900000   16.765937393600002    0.093496397137642    0.022965587675571    0.124745383858681
74    2.809254619699999    2.831604665700000   18.561644792599999   -0.017797097563744    0.065409198403358   -0.000004468951374
98    3.714923951199999    3.936826339400000   20.357352191600000    0.093515112996101    0.022965006530285   -0.124801002442837
114    3.656442017100000    0.695810490500000   18.561644792599999    0.022853776812553   -0.070367835462093   -0.000063938088715
178    0.549663671100000    2.571948633400000   18.561644792599999    0.022861242294312    0.070368915796280   -0.000065412605181
10    5.916293922700000    3.853439467000000   20.212877979400002    0.122627452015877   -0.008452981710434   -0.206711098551750
82    5.916033189399998    0.436154327500000   18.561644792599999   -0.017805799841881   -0.065403655171394   -0.000002802349627
182    6.763220400299998    2.571948633400000   18.561644792599999    0.022867962718010    0.070357419550419   -0.000018607126549
14   12.129850316399997    3.853439467000000   20.212877979400002    0.122631907463074   -0.008475631475449   -0.206717625260353
78    9.022811199800000    2.831604665700000   18.561644792599999   -0.017806036397815    0.065395206212997   -0.000001206062734
86   12.129589583100000    0.436154327500000   18.561644792599999   -0.017809182405472   -0.065403819084167    0.000006832278814
102    9.928480344900001    3.936826339400000   20.357352191600000    0.093486927449703    0.022954590618610   -0.124772213399410
118    9.869998783600000    0.695810490500000   18.561644792599999    0.022868737578392   -0.070354364812374   -0.000017754733562
2    2.809515539400000    5.949837787100000   20.212877979400002    0.122637413442135    0.008460700511932   -0.206717208027840
116    3.656442017100000    7.231328999700000   18.561644792599999    0.022872246801853   -0.070356704294682    0.000016085785319
162    0.608145655000000    5.866450914700000   20.357352191600000    0.093496687710285   -0.022947698831558   -0.124776199460030
84    5.916033189399998    6.971672392300000   18.561644792599999   -0.017810361459851   -0.065396219491959   -0.000010826441212
166    6.821702707300000    5.866450914700000   20.357352191600000    0.093508221209049   -0.022998690605164   -0.124797187745571
6    9.023071933099999    5.949837787100000   20.212877979400002    0.122631281614304    0.008456483483315   -0.206722334027290
88   12.129589583100000    6.971672392300000   18.561644792599999   -0.017804974690080   -0.065392464399338   -0.000007814857781
120    9.869998783600000    7.231328999700000   18.561644792599999    0.022866722196341   -0.070361338555813   -0.000032605603337
4    2.809515539400000   12.485355956499999   20.212877979400002    0.122628390789032    0.008450433611870   -0.206709459424019
76    2.809254619699999    9.367123031200000   18.561644792599999   -0.017802944406867    0.065389975905418    0.000001661479473
100    3.714923951199999   10.472344887900000   20.357352191600000    0.093528084456921    0.022992849349976   -0.124826103448868
164    0.608145655000000   12.401968705000000   20.357352191600000    0.093515418469906   -0.022992976009846   -0.124818623065948
180    0.549663671100000    9.107466423800000   18.561644792599999    0.022869493812323    0.070350624620914   -0.000021839747205
12    5.916293922700000   10.388957636400002   20.212877979400002    0.122627146542072   -0.008457079529762   -0.206719100475311
168    6.821702707300000   12.401968705000000   20.357352191600000    0.093493416905403   -0.022973701357841   -0.124793127179146
184    6.763220400299998    9.107466423800000   18.561644792599999    0.022856555879116    0.070369400084019   -0.000012864358723
8    9.023071933099999   12.485355956499999   20.212877979400002    0.122641853988171    0.008453220129013   -0.206723585724831
16   12.129850316399997   10.388957636400002   20.212877979400002    0.122638590633869   -0.008456751704216   -0.206706702709198
80    9.022811199800000    9.367123031200000   18.561644792599999   -0.017791766673326    0.065398514270782    0.000000904779881
104    9.928480344900001   10.472344887900000   20.357352191600000    0.093514874577522    0.022983506321907   -0.124802537262440
