ITEM: TIMESTEP
0
ITEM: NUMBER OF ATOMS
192
ITEM: BOX BOUNDS xy xz yz pp pp pp
0.0000000000000000e+00 1.2427113533000000e+01 0.0000000000000000e+00
0.0000000000000000e+00 1.3071036338800001e+01 0.0000000000000000e+00
0.0000000000000000e+00 2.1213308334400001e+01 0.0000000000000000e+00
ITEM: ATOMS id xu yu zu fx fy fz
17    0.297262781700000    2.682078702400000    1.000430206500000   -0.122646763920784    0.008544698357582    0.206722259521484
41    3.404041227099999    0.585680473800000    1.000430206500000   -0.122661754488945   -0.008479639887810    0.206648647785187
89    3.404301960299999    3.703913307600000    2.651663541800000    0.017844712361693   -0.065314449369907    0.000054738717154
137    2.498632815300000    2.598692026100000    0.855957012500000   -0.093521922826767   -0.022953242063522    0.124740697443485
21    6.510819237499998    2.682078702400000    1.000430206500000   -0.122719354927540    0.008529409766197    0.206658750772476
169    5.605411198500000    0.669067150100000    0.855957012500000   -0.093470506370068    0.022905282676220    0.124733366072178
185    5.663893132700000    3.963569536000000    2.651663541800000   -0.022887801751494   -0.070328235626221    0.000050436239690
45    9.617598366399999    0.585680473800000    1.000430206500000   -0.122687026858330   -0.008509546518326    0.206705868244171
93    9.617859099700000    3.703913307600000    2.651663541800000    0.017844442278147   -0.065406069159508   -0.000011271098629
141    8.712189954599999    2.598692026100000    0.855957012500000   -0.093406006693840   -0.022935405373573    0.124708026647568
173   11.818968337799999    0.669067150100000    0.855957012500000   -0.093503102660179    0.022942177951336    0.124735623598099
189   11.877449899200000    3.963569536000000    2.651663541800000   -0.022871382534504   -0.070358492434025   -0.000004543559044
43    3.404041227099999    7.121198551700000    1.000430206500000   -0.122677460312843   -0.008514642715454    0.206683918833733
65    0.297523738700000    6.099363946500000    2.651663541800000    0.017883067950606    0.065366052091122   -0.000018221326172
121    2.557114749400000    5.839707718100000    2.651663541800000   -0.022924439981580    0.070281177759171   -0.000045387772843
69    6.511080716399999    6.099363946500000    2.651663541800000    0.017820933833718    0.065363317728043    0.000007821246982
171    5.605411198500000    7.204585032000001    0.855957012500000   -0.093443974852562    0.023019477725029    0.124762728810310
47    9.617598366399999    7.121198551700000    1.000430206500000   -0.122598007321358   -0.008540824055672    0.206689238548279
125    8.770671515900000    5.839707718100000    2.651663541800000   -0.022884702309966    0.070348925888538   -0.000005424488336
175   11.818968337799999    7.204585032000001    0.855957012500000   -0.093524008989334    0.022957421839237    0.124718919396400
19    0.297262781700000    9.217596871800000    1.000430206500000   -0.122675344347954    0.008468285202980    0.206652224063873
67    0.297523738700000   12.634882115900002    2.651663541800000    0.017827359959483    0.065389245748520    0.000004003290087
91    3.404301960299999   10.239431477000000    2.651663541800000    0.017864795401692   -0.065400026738644    0.000035326087527
123    2.557114749400000   12.375225508500000    2.651663541800000   -0.022891778498888    0.070355094969273    0.000051540424465
139    2.498632815300000    9.134210391500000    0.855957012500000   -0.093506641685963   -0.022959187626839    0.124746143817902
23    6.510819237499998    9.217596871800000    1.000430206500000   -0.122756779193878    0.008477628231049    0.206721305847168
71    6.511080716399999   12.634882115900002    2.651663541800000    0.017789069563150    0.065413624048233   -0.000014002434909
187    5.663893132700000   10.499088084400002    2.651663541800000   -0.022903911769390   -0.070391654968262   -0.000031229574233
95    9.617859099700000   10.239431477000000    2.651663541800000    0.017840662971139   -0.065371304750443    0.000002287095413
127    8.770671515900000   12.375225508500000    2.651663541800000   -0.022847685962915    0.070297807455063   -0.000040316488594
143    8.712189954599999    9.134210391500000    0.855957012500000   -0.093465209007263   -0.022917985916138    0.124729499220848
191   11.877449899200000   10.499088084400002    2.651663541800000   -0.022967437282205   -0.070252604782581   -0.000059152396716
25    0.297262781700000    2.682078702400000    4.302896728600000   -0.122750043869019    0.008587285876274   -0.206712692975998
57    3.404041227099999    0.585680473800000    4.302896728600000   -0.122566185891628   -0.008559405803680   -0.206694751977921
145    2.498632815300000    2.598692026100000    4.447369986200000   -0.093312263488770   -0.022795855998993   -0.124601036310196
153    3.714923951199999    3.936826339400000    6.159283862799999    0.093415983021259    0.022510983049870    0.123795129358768
29    6.510819237499998    2.682078702400000    4.302896728600000   -0.122689053416252    0.008524209260941   -0.206762686371803
33    5.916293922700000    3.853439467000000    6.303757438599999    0.116744145750999   -0.004540979862213    0.212848693132401
105    5.605411198500000    0.669067150100000    4.447369986200000   -0.093577839434147    0.022964410483837   -0.124787256121635
37   12.129850316399997    3.853439467000000    6.303757438599999    0.122847154736519   -0.008271962404251    0.207084357738495
61    9.617598366399999    0.585680473800000    4.302896728600000   -0.122602447867393   -0.008539587259293   -0.206641152501106
109   11.818968337799999    0.669067150100000    4.447369986200000   -0.093546703457832    0.022967264056206   -0.124758385121822
149    8.712189954599999    2.598692026100000    4.447369986200000   -0.093456402420998   -0.022858031094074   -0.124669671058655
157    9.928480344900001    3.936826339400000    6.159283862799999    0.093592315912247    0.022883675992489    0.124824754893780
49    2.809515539400000    5.949837787100000    6.303757438599999    0.121743813157082    0.008180946111679    0.207161203026772
59    3.404041227099999    7.121198551700000    4.302896728600000   -0.122579619288445   -0.008374601602554   -0.207191526889801
129    0.608145655000000    5.866450914700000    6.159283862799999    0.092793472111225   -0.022880494594574    0.125136196613312
107    5.605411198500000    7.204585032000001    4.447369986200000   -0.093305423855782    0.022968322038651   -0.124973237514496
133    6.821702707300000    5.866450914700000    6.159283862799999    0.093598082661629   -0.022895552217960    0.124535948038101
53    9.023071933099999    5.949837787100000    6.303757438599999    0.122649610042572    0.008421838283539    0.206593036651611
63    9.617598366399999    7.121198551700000    4.302896728600000   -0.122617006301880   -0.008479699492455   -0.206661373376846
111   11.818968337799999    7.204585032000001    4.447369986200000   -0.093481868505478    0.022889554500580   -0.124633349478245
27    0.297262781700000    9.217596871800000    4.302896728600000   -0.122708097100258    0.008405745029449   -0.206606060266495
51    2.809515539400000   12.485355956499999    6.303757438599999    0.122750259935856    0.008529856801033    0.206704691052437
131    0.608145655000000   12.401968705000000    6.159283862799999    0.093474760651588   -0.022927403450012    0.124814651906490
147    2.498632815300000    9.134210391500000    4.447369986200000   -0.093359373509884   -0.022730045020580   -0.124681249260902
155    3.714923951199999   10.472344887900000    6.159283862799999    0.093460038304329    0.023086726665497    0.124468289315701
31    6.510819237499998    9.217596871800000    4.302896728600000   -0.122695185244083    0.008592382073402   -0.206690117716789
35    5.916293922700000   10.388957636400002    6.303757438599999    0.122714623808861   -0.008469805121422    0.206725209951401
135    6.821702707300000   12.401968705000000    6.159283862799999    0.093421548604965   -0.023017168045044    0.124800182878971
39   12.129850316399997   10.388957636400002    6.303757438599999    0.122672706842422   -0.008525073528290    0.206633955240250
55    9.023071933099999   12.485355956499999    6.303757438599999    0.122692599892616    0.008556261658669    0.206611678004265
151    8.712189954599999    9.134210391500000    4.447369986200000   -0.093419514596462   -0.022949546575546   -0.124746948480606
159    9.928480344900001   10.472344887900000    6.159283862799999    0.093473196029663    0.022895142436028    0.124781936407089
73    2.809254619699999    2.831604665700000    7.954990625400001   -0.017694991081953    0.065453112125397    0.000244783237576
97    3.714923951199999    3.936826339400000    9.750697388000001    0.082598671317101    0.040278278291225   -0.123344667255878
113    3.656442017100000    0.695810490500000    7.954990625400001    0.022875729948282   -0.070666708052158   -0.000191001454368
177    0.549663671100000    2.571948633400000    7.954990625400001    0.022255901247263    0.071401141583920    0.001074135303497
9    5.916293922700000    3.853439467000000    9.606223812200000    0.122432395815849   -0.008806183934212   -0.206549972295761
81    5.916033189399998    0.436154327500000    7.954990625400001   -0.017891190946102   -0.065381795167923   -0.000005908310413
181    6.763220400299998    2.571948633400000    7.954990625400001    0.023204160854220    0.069998338818550   -0.000443300697953
13   12.129850316399997    3.853439467000000    9.606223812200000    0.122455283999443   -0.009729102253914   -0.207068979740143
77    9.022811199800000    2.831604665700000    7.954990625400001   -0.017933104187250    0.065323144197464   -0.000110631342977
85   12.129589583100000    0.436154327500000    7.954990625400001   -0.017826752737164   -0.065461710095406   -0.000028441980248
101    9.928480344900001    3.936826339400000    9.750697388000001    0.095213286578655    0.023127429187298   -0.124718889594078
117    9.869998783600000    0.695810490500000    7.954990625400001    0.022952001541853   -0.070289038121700    0.000029098941013
1    2.799515539399999    5.949837787100000    9.606223812200000    0.190235078334808   -0.001834362745285   -0.224675670266151
115    3.656442017100000    7.231328999700000    7.954990625400001    0.016158569604158   -0.080163642764091    0.012621168978512
161    0.608145655000000    5.866450914700000    9.750697388000001    0.050135407596827   -0.032006442546844   -0.129253938794136
83    5.916033189399998    6.971672392300000    7.954990625400001   -0.017358778044581   -0.065248005092144   -0.000331266783178
165    6.821702707300000    5.866450914700000    9.750697388000001    0.093843601644039   -0.022670321166515   -0.124623052775860
5    9.023071933099999    5.949837787100000    9.606223812200000    0.122396260499954    0.008722916245461   -0.206452846527100
87   12.129589583100000    6.971672392300000    7.954990625400001   -0.018243281170726   -0.064402744174004   -0.001608853926882
119    9.869998783600000    7.231328999700000    7.954990625400001    0.023750755935907   -0.070413284003735    0.000257428269833
3    2.809515539400000   12.485355956499999    9.606223812200000    0.122712701559067    0.008538886904716   -0.206712380051613
75    2.809254619699999    9.367123031200000    7.954990625400001   -0.017694264650345    0.065230458974838   -0.000262367539108
99    3.714923951199999   10.472344887900000    9.750697388000001    0.093534894287586    0.023536227643490   -0.124538250267506
163    0.608145655000000   12.401968705000000    9.750697388000001    0.093466944992542   -0.022923827171326   -0.124726347625256
179    0.549663671100000    9.107466423800000    7.954990625400001    0.022449973970652    0.069672927260399    0.000537538435310
11    5.916293922700000   10.388957636400002    9.606223812200000    0.122737765312195   -0.008375063538551   -0.206896528601646
167    6.821702707300000   12.401968705000000    9.750697388000001    0.093412533402443   -0.023010157048702   -0.124787665903568
183    6.763220400299998    9.107466423800000    7.954990625400001    0.023199295625091    0.070679008960724    0.000019484199584
7    9.023071933099999   12.485355956499999    9.606223812200000    0.122667595744133    0.008550688624382   -0.206681415438652
15   12.129850316399997   10.388957636400002    9.606223812200000    0.122736550867558   -0.008537426590919   -0.206617951393127
79    9.022811199800000    9.367123031200000    7.954990625400001   -0.017902309074998    0.065401300787926    0.000019069295377
103    9.928480344900001   10.472344887900000    9.750697388000001    0.093380711972713    0.022758550941944   -0.124623522162437
18    0.297262781700000    2.682078702400000   11.607084522199999   -0.122688427567482    0.007883056998253    0.207074806094170
42    3.404041227099999    0.585680473800000   11.607084522199999   -0.122595280408859   -0.008391737937927    0.206649869680405
90    3.404301960299999    3.703913307600000   13.258317709000000    0.017726816236973   -0.065574765205383    0.000329768285155
138    2.498632815300000    2.598692026100000   11.462611582800001   -0.092605903744698   -0.021179117262363    0.122220367193222
22    6.510819237499998    2.682078702400000   11.607084522199999   -0.122848398983479    0.008880317211151    0.206189095973969
170    5.605411198500000    0.669067150100000   11.462611582800001   -0.093472056090832    0.022382371127605    0.124965131282806
186    5.663893132700000    3.963569536000000   13.258317709000000   -0.022765094414353   -0.070167943835258    0.000419776421040
46    9.617598366399999    0.585680473800000   11.607084522199999   -0.122830264270306   -0.008560106158257    0.206730514764786
94    9.617859099700000    3.703913307600000   13.258317709000000    0.017793420702219   -0.065307825803757    0.000078498385847
142    8.712189954599999    2.598692026100000   11.462611582800001   -0.092728726565838   -0.023132458329201    0.124921463429928
174   11.818968337799999    0.669067150100000   11.462611582800001   -0.093392200767994    0.023278743028641    0.124608501791954
190   11.877449899200000    3.963569536000000   13.258317709000000   -0.022792614996433   -0.070173069834709   -0.000476349145174
44    3.404041227099999    7.121198551700000   11.607084522199999   -0.123952299356461   -0.011263996362686    0.202955633401871
66    0.297523738700000    6.099363946500000   13.258317709000000    0.017894536256790    0.065825775265694   -0.000628446228802
122    2.557114749400000    5.839707718100000   13.258317709000000   -0.023194901645184    0.070012830197811   -0.000693074543960
70    6.511080716399999    6.099363946500000   13.258317709000000    0.018006341531873    0.064998760819435    0.000573866069317
172    5.605411198500000    7.204585032000001   11.462611582800001   -0.089028917253017    0.026121385395527    0.127103835344315
48    9.617598366399999    7.121198551700000   11.607084522199999   -0.122598491609097   -0.008388355374336    0.206849664449692
126    8.770671515900000    5.839707718100000   13.258317709000000   -0.022909644991159    0.070475682616234   -0.000132982619107
176   11.818968337799999    7.204585032000001   11.462611582800001   -0.099531456828117    0.028404831886292    0.132651820778847
20    0.297262781700000    9.217596871800000   11.607084522199999   -0.122570574283600    0.008864894509315    0.206937536597252
68    0.297523738700000   12.634882115900002   13.258317709000000    0.017849367111921    0.065387666225433    0.000047535635531
92    3.404301960299999   10.239431477000000   13.258317709000000    0.017834458500147   -0.065604746341705   -0.000067390268669
124    2.557114749400000   12.375225508500000   13.258317709000000   -0.022865839302540    0.070296153426170    0.000058557350712
140    2.498632815300000    9.134210391500000   11.462611582800001   -0.093947105109692   -0.022427000105381    0.124398306012154
24    6.510819237499998    9.217596871800000   11.607084522199999   -0.122793130576611    0.007951766252518    0.206950932741165
72    6.511080716399999   12.634882115900002   13.258317709000000    0.017807755619287    0.065393954515457   -0.000005558133125
188    5.663893132700000   10.499088084400002   13.258317709000000   -0.022878009825945   -0.070498697459698   -0.000064456835389
96    9.617859099700000   10.239431477000000   13.258317709000000    0.017748374491930   -0.065350137650967    0.000028299935366
128    8.770671515900000   12.375225508500000   13.258317709000000   -0.022834859788418    0.070355869829655    0.000020071864128
144    8.712189954599999    9.134210391500000   11.462611582800001   -0.093587540090084   -0.023099064826965    0.124696642160416
192   11.877449899200000   10.499088084400002   13.258317709000000   -0.022858910262585   -0.070406474173069   -0.000077690048784
26    0.297262781700000    2.682078702400000   14.909550895800001   -0.122614294290543    0.008407279849052   -0.206698030233383
58    3.404041227099999    0.585680473800000   14.909550895800001   -0.122607752680779   -0.008461803197861   -0.206703558564186
146    2.498632815300000    2.598692026100000   15.054023835200001   -0.093533702194691   -0.023024976253510   -0.124720588326454
154    3.714923951199999    3.936826339400000   16.765937393600002    0.093523710966110    0.023005902767181    0.124767564237118
30    6.510819237499998    2.682078702400000   14.909550895800001   -0.122624695301056    0.008430719375610   -0.206713959574699
34    5.916293922700000    3.853439467000000   16.910411605800000    0.122636362910271   -0.008460313081741    0.206732407212257
106    5.605411198500000    0.669067150100000   15.054023835200001   -0.093516126275063    0.023002937436104   -0.124739855527878
38   12.129850316399997    3.853439467000000   16.910411605800000    0.122636348009109   -0.008460134267807    0.206751137971878
62    9.617598366399999    0.585680473800000   14.909550895800001   -0.122646145522594   -0.008439153432846   -0.206718385219574
110   11.818968337799999    0.669067150100000   15.054023835200001   -0.093502841889858    0.022970497608185   -0.124739751219749
150    8.712189954599999    2.598692026100000   15.054023835200001   -0.093542858958244   -0.022992022335529   -0.124761953949928
158    9.928480344900001    3.936826339400000   16.765937393600002    0.093493521213531    0.022978216409683    0.124763160943985
50    2.809515539400000    5.949837787100000   16.910411605800000    0.122657403349876    0.008482277393341    0.206701219081879
60    3.404041227099999    7.121198551700000   14.909550895800001   -0.122599713504314   -0.008312433958054   -0.206409245729446
130    0.608145655000000    5.866450914700000   16.765937393600002    0.093537576496601   -0.022951923310757    0.124694839119911
108    5.605411198500000    7.204585032000001   15.054023835200001   -0.093509927392006    0.022924557328224   -0.124913394451141
134    6.821702707300000    5.866450914700000   16.765937393600002    0.093486301600933   -0.022935479879379    0.124721080064774
54    9.023071933099999    5.949837787100000   16.910411605800000    0.122645497322083    0.008456349372864    0.206737786531448
64    9.617598366399999    7.121198551700000   14.909550895800001   -0.122598156332970   -0.008454576134682   -0.206776350736618
112   11.818968337799999    7.204585032000001   15.054023835200001   -0.093563280999660    0.023065403103828   -0.124724425375462
28    0.297262781700000    9.217596871800000   14.909550895800001   -0.122670911252499    0.008387982845306   -0.206731945276260
52    2.809515539400000   12.485355956499999   16.910411605800000    0.122641399502754    0.008448675274849    0.206737399101257
132    0.608145655000000   12.401968705000000   16.765937393600002    0.093499004840851   -0.022978760302067    0.124756619334221
148    2.498632815300000    9.134210391500000   15.054023835200001   -0.093494825065136   -0.022990591824055   -0.124672628939152
156    3.714923951199999   10.472344887900000   16.765937393600002    0.093496099114418    0.022929579019547    0.124704964458942
32    6.510819237499998    9.217596871800000   14.909550895800001   -0.122621692717075    0.008500948548317   -0.206608861684799
36    5.916293922700000   10.388957636400002   16.910411605800000    0.122636243700981   -0.008457884192467    0.206708937883377
136    6.821702707300000   12.401968705000000   16.765937393600002    0.093501418828964   -0.022968143224716    0.124748148024082
40   12.129850316399997   10.388957636400002   16.910411605800000    0.122633777558804   -0.008447632193565    0.206733793020248
56    9.023071933099999   12.485355956499999   16.910411605800000    0.122629553079605    0.008450508117676    0.206737995147705
152    8.712189954599999    9.134210391500000   15.054023835200001   -0.093468189239502   -0.022953525185585   -0.124736785888672
160    9.928480344900001   10.472344887900000   16.765937393600002    0.093513689935207    0.022968992590904    0.124757386744022
74    2.809254619699999    2.831604665700000   18.561644792599999   -0.017800210043788    0.065399408340454    0.000000859610736
98    3.714923951199999    3.936826339400000   20.357352191600000    0.093520812690258    0.022975966334343   -0.124799214303493
114    3.656442017100000    0.695810490500000   18.561644792599999    0.022867958992720   -0.070357374846935   -0.000020850216970
178    0.549663671100000    2.571948633400000   18.561644792599999    0.022869477048516    0.070350848138332   -0.000011904630810
10    5.916293922700000    3.853439467000000   20.212877979400002    0.122626066207886   -0.008452400565147   -0.206709071993828
82    5.916033189399998    0.436154327500000   18.561644792599999   -0.017804276198149   -0.065397270023823   -0.000003845430911
182    6.763220400299998    2.571948633400000   18.561644792599999    0.022864669561386    0.070357717573643   -0.000019106315449
14   12.129850316399997    3.853439467000000   20.212877979400002    0.122629836201668   -0.008469849824905   -0.206719666719437
78    9.022811199800000    2.831604665700000   18.561644792599999   -0.017801556736231    0.065392248332500   -0.000001793727279
86   12.129589583100000    0.436154327500000   18.561644792599999   -0.017802156507969   -0.065401680767536    0.000001629986855
102    9.928480344900001    3.936826339400000   20.357352191600000    0.093493819236755    0.022953286767006   -0.124771073460579
118    9.869998783600000    0.695810490500000   18.561644792599999    0.022870726883411   -0.070354290306568   -0.000024776905775
2    2.809515539400000    5.949837787100000   20.212877979400002    0.122640870511532    0.008452430367470   -0.206715583801270
116    3.656442017100000    7.231328999700000   18.561644792599999    0.022850811481476   -0.070358239114285   -0.000043678097427
162    0.608145655000000    5.866450914700000   20.357352191600000    0.093490928411484   -0.022954426705837   -0.124778047204018
84    5.916033189399998    6.971672392300000   18.561644792599999   -0.017798574641347   -0.065396159887314   -0.000007742876733
166    6.821702707300000    5.866450914700000   20.357352191600000    0.093518197536469   -0.022997744381428   -0.124794922769070
6    9.023071933099999    5.949837787100000   20.212877979400002    0.122626207768917    0.008463829755783   -0.206719994544983
88   12.129589583100000    6.971672392300000   18.561644792599999   -0.017797986045480   -0.065393224358559   -0.000004727332453
120    9.869998783600000    7.231328999700000   18.561644792599999    0.022865507751703   -0.070356324315071   -0.000025060959160
4    2.809515539400000   12.485355956499999   20.212877979400002    0.122630149126053    0.008454352617264   -0.206711858510971
76    2.809254619699999    9.367123031200000   18.561644792599999   -0.017799461260438    0.065403893589973    0.000000222120434
100    3.714923951199999   10.472344887900000   20.357352191600000    0.093527242541313    0.022991284728050   -0.124822087585926
164    0.608145655000000   12.401968705000000   20.357352191600000    0.093512766063213   -0.022994525730610   -0.124817356467247
180    0.549663671100000    9.107466423800000   18.561644792599999    0.022869978100061    0.070354565978050   -0.000023859553039
12    5.916293922700000   10.388957636400002   20.212877979400002    0.122629195451736   -0.008465722203255   -0.206711083650589
168    6.821702707300000   12.401968705000000   20.357352191600000    0.093496292829514   -0.022975280880928   -0.124791242182255
184    6.763220400299998    9.107466423800000   18.561644792599999    0.022859517484903    0.070362076163292   -0.000014836899936
8    9.023071933099999   12.485355956499999   20.212877979400002    0.122634686529636    0.008451640605927   -0.206718549132347
16   12.129850316399997   10.388957636400002   20.212877979400002    0.122638523578644   -0.008452668786049   -0.206703573465347
80    9.022811199800000    9.367123031200000   18.561644792599999   -0.017797635868192    0.065392374992371   -0.000005729962140
104    9.928480344900001   10.472344887900000   20.357352191600000    0.093513697385788    0.022982791066170   -0.124801866710186
