ITEM: TIMESTEP
0
ITEM: NUMBER OF ATOMS
192
ITEM: BOX BOUNDS xy xz yz pp pp pp
0.0000000000000000e+00 1.2427113533000000e+01 0.0000000000000000e+00
0.0000000000000000e+00 1.3071036338800001e+01 0.0000000000000000e+00
0.0000000000000000e+00 2.1213308334400001e+01 0.0000000000000000e+00
ITEM: ATOMS id xu yu zu fx fy fz
17    0.297262781700000    2.682078702400000    1.000430206500000   -0.122645482420921    0.008564695715904    0.206703573465347
41    3.404041227099999    0.585680473800000    1.000430206500000   -0.122671082615852   -0.008464828133583    0.206619381904602
89    3.404301960299999    3.703913307600000    2.651663541800000    0.017827728763223   -0.065427899360657    0.000060884747654
137    2.498632815300000    2.598692026100000    0.855957012500000   -0.093531072139740   -0.022918403148651    0.124695777893066
21    6.510819237499998    2.682078702400000    1.000430206500000   -0.122715935111046    0.008533015847206    0.206637695431709
169    5.605411198500000    0.669067150100000    0.855957012500000   -0.093413926661015    0.022891007363796    0.124789312481880
185    5.663893132700000    3.963569536000000    2.651663541800000   -0.022828740999103   -0.070406675338745    0.000124331563711
45    9.617598366399999    0.585680473800000    1.000430206500000   -0.122686520218849   -0.008518397808075    0.206703200936317
93    9.617859099700000    3.703913307600000    2.651663541800000    0.017866328358650   -0.065387703478336   -0.000013676472008
141    8.712189954599999    2.598692026100000    0.855957012500000   -0.093409806489944   -0.022933363914490    0.124721430242062
173   11.818968337799999    0.669067150100000    0.855957012500000   -0.093515388667583    0.022951446473598    0.124733522534370
189   11.877449899200000    3.963569536000000    2.651663541800000   -0.022921752184629   -0.070347547531128   -0.000075014409958
43    3.404041227099999    7.121198551700000    1.000430206500000   -0.122674211859703   -0.008517414331436    0.206672489643097
65    0.297523738700000    6.099363946500000    2.651663541800000    0.017846284434199    0.065378844738007    0.000005771405995
121    2.557114749400000    5.839707718100000    2.651663541800000   -0.022906633093953    0.070291228592396   -0.000047618523240
69    6.511080716399999    6.099363946500000    2.651663541800000    0.017810605466366    0.065359935164452   -0.000004726462066
171    5.605411198500000    7.204585032000001    0.855957012500000   -0.093438655138016    0.023015871644020    0.124752387404442
47    9.617598366399999    7.121198551700000    1.000430206500000   -0.122597746551037   -0.008544564247131    0.206692904233932
125    8.770671515900000    5.839707718100000    2.651663541800000   -0.022887429222465    0.070331364870071   -0.000014752615243
175   11.818968337799999    7.204585032000001    0.855957012500000   -0.093526750802994    0.022971183061600    0.124715901911259
19    0.297262781700000    9.217596871800000    1.000430206500000   -0.122682794928551    0.008464202284813    0.206649482250214
67    0.297523738700000   12.634882115900002    2.651663541800000    0.017844639718533    0.065461754798889    0.000127954408526
91    3.404301960299999   10.239431477000000    2.651663541800000    0.017814954742789   -0.065379291772842    0.000042011612095
123    2.557114749400000   12.375225508500000    2.651663541800000   -0.022854018956423    0.070215865969658    0.001148228766397
139    2.498632815300000    9.134210391500000    0.855957012500000   -0.093525677919388   -0.022967226803303    0.124736987054348
23    6.510819237499998    9.217596871800000    1.000430206500000   -0.122757047414780    0.008484840393066    0.206741958856583
71    6.511080716399999   12.634882115900002    2.651663541800000    0.017824700102210    0.065315507352352   -0.000260602682829
187    5.663893132700000   10.499088084400002    2.651663541800000   -0.022831346839666   -0.070326343178749   -0.000047765206546
95    9.617859099700000   10.239431477000000    2.651663541800000    0.017862811684608   -0.065386310219765   -0.000002904562280
127    8.770671515900000   12.375225508500000    2.651663541800000   -0.022951621562243    0.070269644260406   -0.000066469889134
143    8.712189954599999    9.134210391500000    0.855957012500000   -0.093463331460953   -0.022918932139874    0.124732725322247
191   11.877449899200000   10.499088084400002    2.651663541800000   -0.022999024018645   -0.070262745022774   -0.000129638385260
25    0.297262781700000    2.682078702400000    4.302896728600000   -0.122629329562187    0.008337140083313   -0.206538379192352
57    3.404041227099999    0.585680473800000    4.302896728600000   -0.122828513383865   -0.008711546659470   -0.205968648195267
145    2.498632815300000    2.598692026100000    4.447369986200000   -0.093469679355621   -0.023537471890450   -0.124640360474586
153    3.714923951199999    3.936826339400000    6.159283862799999    0.094472989439964    0.023860581219196    0.123471856117249
29    6.510819237499998    2.682078702400000    4.302896728600000   -0.122584573924541    0.008744329214096   -0.206968992948532
33    5.916293922700000    3.853439467000000    6.303757438599999    0.122161433100700   -0.007270604372025    0.205730795860291
105    5.605411198500000    0.669067150100000    4.447369986200000   -0.094333559274673    0.023093938827515   -0.123670637607574
37   12.129850316399997    3.853439467000000    6.303757438599999    0.122976131737232   -0.009015664458275    0.207339882850647
61    9.617598366399999    0.585680473800000    4.302896728600000   -0.122645854949951   -0.008622050285339   -0.206505805253983
109   11.818968337799999    0.669067150100000    4.447369986200000   -0.093567460775375    0.022767722606659   -0.124670259654522
149    8.712189954599999    2.598692026100000    4.447369986200000   -0.093557253479958   -0.022853069007397   -0.124933086335659
157    9.928480344900001    3.936826339400000    6.159283862799999    0.093450248241425    0.022941142320633    0.124747835099697
49    2.809515539400000    5.949837787100000    6.303757438599999    0.122606426477432    0.008647873997688    0.206560552120209
59    3.404041227099999    7.121198551700000    4.302896728600000   -0.122628197073936   -0.008563160896301   -0.206670701503754
129    0.608145655000000    5.866450914700000    6.159283862799999    0.093493781983852   -0.022878825664520    0.124765090644360
107    5.605411198500000    7.204585032000001    4.447369986200000   -0.093474753201008    0.022886462509632   -0.124773137271404
133    6.821702707300000    5.866450914700000    6.159283862799999    0.093343473970890   -0.022992327809334    0.124755382537842
53    9.023071933099999    5.949837787100000    6.303757438599999    0.122775144875050    0.008563354611397    0.206640362739563
63    9.617598366399999    7.121198551700000    4.302896728600000   -0.122602455317974   -0.008549794554710   -0.206647083163261
111   11.818968337799999    7.204585032000001    4.447369986200000   -0.093587398529053    0.022786997258663   -0.124744065105915
27    0.297262781700000    9.217596871800000    4.302896728600000   -0.122641079127789    0.008623868227005   -0.206556811928749
51    2.809515539400000   12.485355956499999    6.303757438599999    0.116164408624172   -0.000966772437096    0.192174270749092
131    0.608145655000000   12.401968705000000    6.159283862799999    0.093493700027466   -0.023933246731758    0.124434962868690
147    2.498632815300000    9.134210391500000    4.447369986200000   -0.093542352318764   -0.022932067513466   -0.125001326203346
155    3.714923951199999   10.472344887900000    6.159283862799999    0.093599744141102    0.024242371320724    0.125350564718246
31    6.510819237499998    9.217596871800000    4.302896728600000   -0.122715204954147    0.008411839604378   -0.206759616732597
35    5.916293922700000   10.388957636400002    6.303757438599999    0.122032143175602   -0.008655726909637    0.207138806581497
135    6.821702707300000   12.401968705000000    6.159283862799999    0.090119197964668   -0.019693486392498    0.130599975585938
39   12.129850316399997   10.388957636400002    6.303757438599999    0.122984729707241   -0.007526576519012    0.206624120473862
55    9.023071933099999   12.485355956499999    6.303757438599999    0.123429588973522    0.008513733744621    0.206654638051987
151    8.712189954599999    9.134210391500000    4.447369986200000   -0.093413896858692   -0.022832348942757   -0.124694243073463
159    9.928480344900001   10.472344887900000    6.159283862799999    0.093526579439640    0.022850655019283    0.124750323593616
73    2.809254619699999    2.831604665700000    7.954990625400001   -0.021025508642197    0.071644134819508   -0.000007900409400
97    3.714923951199999    3.936826339400000    9.750697388000001    0.094462640583515    0.023903325200081   -0.123472698032856
113    3.646442017100000    0.695810490500000    7.954990625400001    0.078206263482571   -0.062666013836861    0.000032793032005
177    0.549663671100000    2.571948633400000    7.954990625400001    0.016978353261948    0.073106475174427   -0.000005295267329
9    5.916293922700000    3.853439467000000    9.606223812200000    0.122174464166164   -0.007251501083374   -0.205714136362076
81    5.916033189399998    0.436154327500000    7.954990625400001   -0.038655847311020   -0.064183868467808   -0.000017225276679
181    6.763220400299998    2.571948633400000    7.954990625400001    0.017176767811179    0.061618261039257   -0.000013928394765
13   12.129850316399997    3.853439467000000    9.606223812200000    0.122941598296165   -0.008972465991974   -0.207290828227997
77    9.022811199800000    2.831604665700000    7.954990625400001   -0.017125114798546    0.065494567155838   -0.000010774936527
85   12.129589583100000    0.436154327500000    7.954990625400001   -0.018900474533439   -0.065424323081970   -0.000008340491149
101    9.928480344900001    3.936826339400000    9.750697388000001    0.093529999256134    0.022998556494713   -0.124770209193230
117    9.869998783600000    0.695810490500000    7.954990625400001    0.022886857390404   -0.070239834487438    0.000024362932891
1    2.809515539400000    5.949837787100000    9.606223812200000    0.122623845934868    0.008611604571342   -0.206601962447166
115    3.656442017100000    7.231328999700000    7.954990625400001    0.022968780249357   -0.070406295359135    0.000007289461792
161    0.608145655000000    5.866450914700000    9.750697388000001    0.093447551131248   -0.022911109030247   -0.124729126691818
83    5.916033189399998    6.971672392300000    7.954990625400001   -0.017819602042437   -0.065321713685989    0.000002116896212
165    6.821702707300000    5.866450914700000    9.750697388000001    0.093416072428226   -0.022972330451012   -0.124748624861240
5    9.023071933099999    5.949837787100000    9.606223812200000    0.122704029083252    0.008521839976311   -0.206678718328476
87   12.129589583100000    6.971672392300000    7.954990625400001   -0.017838221043348   -0.065429165959358   -0.000003867138275
119    9.869998783600000    7.231328999700000    7.954990625400001    0.022955812513828   -0.070290975272655    0.000014423858374
3    2.809515539400000   12.485355956499999    9.606223812200000    0.116157054901123   -0.000983595848083   -0.192190319299698
75    2.809254619699999    9.367123031200000    7.954990625400001   -0.017906595021486    0.065225772559643    0.000009794719517
99    3.714923951199999   10.472344887900000    9.750697388000001    0.093609698116779    0.024265170097351   -0.125329315662384
163    0.608145655000000   12.401968705000000    9.750697388000001    0.093527592718601   -0.023870587348938   -0.124404728412628
179    0.549663671100000    9.107466423800000    7.954990625400001    0.022836914286017    0.070048950612545   -0.000000187428668
11    5.916293922700000   10.388957636400002    9.606223812200000    0.122010558843613   -0.008647635579109   -0.207155585289001
167    6.821702707300000   12.401968705000000    9.750697388000001    0.090099066495895   -0.019747525453568   -0.130581632256508
183    6.763220400299998    9.107466423800000    7.954990625400001    0.022770300507545    0.070325136184692    0.000015598488972
7    9.023071933099999   12.485355956499999    9.606223812200000    0.123473651707172    0.008589491248131   -0.206655308604240
15   12.129850316399997   10.388957636400002    9.606223812200000    0.123019166290760   -0.007594764232635   -0.206612676382065
79    9.022811199800000    9.367123031200000    7.954990625400001   -0.017806742340326    0.065420955419540   -0.000007277820259
103    9.928480344900001   10.472344887900000    9.750697388000001    0.093502938747406    0.022827267646790   -0.124744132161140
18    0.297262781700000    2.682078702400000   11.607084522199999   -0.122618988156319    0.008356705307961    0.206493049860001
42    3.404041227099999    0.585680473800000   11.607084522199999   -0.122940555214882   -0.008701056241989    0.205969274044037
90    3.404301960299999    3.703913307600000   13.258317709000000    0.017798300832510   -0.065440900623798   -0.000063214974944
138    2.498632815300000    2.598692026100000   11.462611582800001   -0.093461133539677   -0.023532606661320    0.124688796699047
22    6.510819237499998    2.682078702400000   11.607084522199999   -0.122567541897297    0.008677303791046    0.206945806741714
170    5.605411198500000    0.669067150100000   11.462611582800001   -0.094207003712654    0.023109026253223    0.123699896037579
186    5.663893132700000    3.963569536000000   13.258317709000000   -0.022852193564177   -0.070390552282333   -0.000066889915615
46    9.617598366399999    0.585680473800000   11.607084522199999   -0.122768394649029   -0.008649215102196    0.206535011529922
94    9.617859099700000    3.703913307600000   13.258317709000000    0.017820563167334   -0.065360210835934    0.000031412579119
142    8.712189954599999    2.598692026100000   11.462611582800001   -0.093555532395840   -0.022913999855518    0.124964267015457
174   11.818968337799999    0.669067150100000   11.462611582800001   -0.093494042754173    0.022706933319569    0.124687358736992
190   11.877449899200000    3.963569536000000   13.258317709000000   -0.022916527464986   -0.070287190377712    0.000073753297329
44    3.404041227099999    7.121198551700000   11.607084522199999   -0.122669115662575   -0.008506879210472    0.206744000315666
66    0.297523738700000    6.099363946500000   13.258317709000000    0.017830749973655    0.065399751067162   -0.000004566274583
122    2.557114749400000    5.839707718100000   13.258317709000000   -0.022897031158209    0.070342987775803    0.000063235202106
70    6.511080716399999    6.099363946500000   13.258317709000000    0.017805846408010    0.065403513610363    0.000006756745279
172    5.605411198500000    7.204585032000001   11.462611582800001   -0.093422457575798    0.022895723581314    0.124802492558956
48    9.617598366399999    7.121198551700000   11.607084522199999   -0.122601233422756   -0.008452951908112    0.206734701991081
126    8.770671515900000    5.839707718100000   13.258317709000000   -0.022856950759888    0.070370614528656    0.000004935543984
176   11.818968337799999    7.204585032000001   11.462611582800001   -0.093536302447319    0.022905938327312    0.124774083495140
20    0.297262781700000    9.217596871800000   11.607084522199999   -0.122621849179268    0.008533969521523    0.206645607948303
68    0.297523738700000   12.634882115900002   13.258317709000000    0.017821125686169    0.065459601581097   -0.000112467445433
92    3.404301960299999   10.239431477000000   13.258317709000000    0.017764372751117   -0.065383538603783   -0.000032191055652
124    2.557114749400000   12.375225508500000   13.258317709000000   -0.022836092859507    0.070213437080383   -0.001059650327079
140    2.498632815300000    9.134210391500000   11.462611582800001   -0.093630969524384   -0.022936619818211    0.125030219554901
24    6.510819237499998    9.217596871800000   11.607084522199999   -0.122638560831547    0.008369237184525    0.206775248050690
72    6.511080716399999   12.634882115900002   13.258317709000000    0.017853550612926    0.065290994942188    0.000266493298113
188    5.663893132700000   10.499088084400002   13.258317709000000   -0.022812047973275   -0.070290282368660    0.000047202687711
96    9.617859099700000   10.239431477000000   13.258317709000000    0.017838180065155   -0.065401397645473    0.000025612069294
128    8.770671515900000   12.375225508500000   13.258317709000000   -0.022960253059864    0.070332117378712    0.000033285949030
144    8.712189954599999    9.134210391500000   11.462611582800001   -0.093459181487560   -0.022933311760426    0.124742701649666
192   11.877449899200000   10.499088084400002   13.258317709000000   -0.022909021005034   -0.070362158119678    0.000089498469606
26    0.297262781700000    2.682078702400000   14.909550895800001   -0.122613623738289    0.008432865142822   -0.206666231155396
58    3.404041227099999    0.585680473800000   14.909550895800001   -0.122645810246468   -0.008435294032097   -0.206691771745682
146    2.498632815300000    2.598692026100000   15.054023835200001   -0.093554809689522   -0.022964604198933   -0.124706551432610
154    3.714923951199999    3.936826339400000   16.765937393600002    0.093486435711384    0.022963441908360    0.124745957553387
30    6.510819237499998    2.682078702400000   14.909550895800001   -0.122605949640274    0.008414164185524   -0.206657916307449
34    5.916293922700000    3.853439467000000   16.910411605800000    0.122646242380142   -0.008456781506538    0.206715613603592
106    5.605411198500000    0.669067150100000   15.054023835200001   -0.093446694314480    0.022978544235229   -0.124799780547619
38   12.129850316399997    3.853439467000000   16.910411605800000    0.122647434473038   -0.008464500308037    0.206738322973251
62    9.617598366399999    0.585680473800000   14.909550895800001   -0.122641116380692   -0.008458986878395   -0.206718906760216
110   11.818968337799999    0.669067150100000   15.054023835200001   -0.093512907624245    0.023002140223980   -0.124741382896900
150    8.712189954599999    2.598692026100000   15.054023835200001   -0.093544028699398   -0.022999197244644   -0.124747470021248
158    9.928480344900001    3.936826339400000   16.765937393600002    0.093511037528515    0.022989183664322    0.124764874577522
50    2.809515539400000    5.949837787100000   16.910411605800000    0.122640959918499    0.008454099297523    0.206733912229538
60    3.404041227099999    7.121198551700000   14.909550895800001   -0.122637793421745   -0.008447438478470   -0.206720799207687
130    0.608145655000000    5.866450914700000   16.765937393600002    0.093519061803818   -0.022975124418736    0.124763607978821
108    5.605411198500000    7.204585032000001   15.054023835200001   -0.093506902456284    0.022974409162998   -0.124744310975075
134    6.821702707300000    5.866450914700000   16.765937393600002    0.093510262668133   -0.022961989045143    0.124753281474113
54    9.023071933099999    5.949837787100000   16.910411605800000    0.122642002999783    0.008454725146294    0.206743031740189
64    9.617598366399999    7.121198551700000   14.909550895800001   -0.122633412480354   -0.008449211716652   -0.206726878881454
112   11.818968337799999    7.204585032000001   15.054023835200001   -0.093528851866722    0.023010008037090   -0.124760664999485
28    0.297262781700000    9.217596871800000   14.909550895800001   -0.122645214200020    0.008440077304840   -0.206729829311371
52    2.809515539400000   12.485355956499999   16.910411605800000    0.122633807361126    0.008457422256470    0.206716343760490
132    0.608145655000000   12.401968705000000   16.765937393600002    0.093508467078209   -0.022966049611568    0.124739453196526
148    2.498632815300000    9.134210391500000   15.054023835200001   -0.093519888818264   -0.022995427250862   -0.124743886291981
156    3.714923951199999   10.472344887900000   16.765937393600002    0.093503177165985    0.022971443831921    0.124751403927803
32    6.510819237499998    9.217596871800000   14.909550895800001   -0.122640833258629    0.008452996611595   -0.206747844815254
36    5.916293922700000   10.388957636400002   16.910411605800000    0.122638061642647   -0.008453160524368    0.206738978624344
136    6.821702707300000   12.401968705000000   16.765937393600002    0.093504726886749   -0.022971689701080    0.124749168753624
40   12.129850316399997   10.388957636400002   16.910411605800000    0.122637838125229   -0.008447587490082    0.206722706556320
56    9.023071933099999   12.485355956499999   16.910411605800000    0.122637540102005    0.008450567722321    0.206736981868744
152    8.712189954599999    9.134210391500000   15.054023835200001   -0.093502677977085   -0.022973686456680   -0.124736800789833
160    9.928480344900001   10.472344887900000   16.765937393600002    0.093502372503281    0.022965334355831    0.124747663736343
74    2.809254619699999    2.831604665700000   18.561644792599999   -0.017799139022827    0.065404608845711   -0.000001772306859
98    3.714923951199999    3.936826339400000   20.357352191600000    0.093507923185825    0.022956281900406   -0.124781854450703
114    3.656442017100000    0.695810490500000   18.561644792599999    0.022868512198329   -0.070355415344238   -0.000020642532036
178    0.549663671100000    2.571948633400000   18.561644792599999    0.022864069789648    0.070359364151955   -0.000027223490179
10    5.916293922700000    3.853439467000000   20.212877979400002    0.122630544006824   -0.008454456925392   -0.206711769104004
82    5.916033189399998    0.436154327500000   18.561644792599999   -0.017804175615311   -0.065400548279285    0.000001655891538
182    6.763220400299998    2.571948633400000   18.561644792599999    0.022872317582369    0.070354044437408   -0.000008340924978
14   12.129850316399997    3.853439467000000   20.212877979400002    0.122631773352623   -0.008476778864861   -0.206722229719162
78    9.022811199800000    2.831604665700000   18.561644792599999   -0.017804566770792    0.065396308898926   -0.000007125549018
86   12.129589583100000    0.436154327500000   18.561644792599999   -0.017806263640523   -0.065403714776039    0.000005247166428
102    9.928480344900001    3.936826339400000   20.357352191600000    0.093491002917290    0.022958613932133   -0.124773316085339
118    9.869998783600000    0.695810490500000   18.561644792599999    0.022865694016218   -0.070356205105782   -0.000016128644347
2    2.809515539400000    5.949837787100000   20.212877979400002    0.122638873755932    0.008463919162750   -0.206717014312744
116    3.656442017100000    7.231328999700000   18.561644792599999    0.022866655141115   -0.070359140634537   -0.000018026446924
162    0.608145655000000    5.866450914700000   20.357352191600000    0.093497440218925   -0.022948600351810   -0.124772816896439
84    5.916033189399998    6.971672392300000   18.561644792599999   -0.017805542796850   -0.065398633480072   -0.000012382656678
166    6.821702707300000    5.866450914700000   20.357352191600000    0.093508325517178   -0.022997818887234   -0.124798454344273
6    9.023071933099999    5.949837787100000   20.212877979400002    0.122630521655083    0.008457660675049   -0.206722766160965
88   12.129589583100000    6.971672392300000   18.561644792599999   -0.017808174714446   -0.065392218530178   -0.000004629740033
120    9.869998783600000    7.231328999700000   18.561644792599999    0.022865239530802   -0.070360660552979   -0.000033224932849
4    2.809515539400000   12.485355956499999   20.212877979400002    0.122631214559078    0.008458137512207   -0.206690415740013
76    2.809254619699999    9.367123031200000   18.561644792599999   -0.017801368609071    0.065396085381508    0.000000386033207
100    3.714923951199999   10.472344887900000   20.357352191600000    0.093528941273689    0.022994749248028   -0.124825179576874
164    0.608145655000000   12.401968705000000   20.357352191600000    0.093518160283566   -0.022991076111794   -0.124806880950928
180    0.549663671100000    9.107466423800000   18.561644792599999    0.022868646308780    0.070349134504795   -0.000023210654035
12    5.916293922700000   10.388957636400002   20.212877979400002    0.122630439698696   -0.008461430668831   -0.206725746393204
168    6.821702707300000   12.401968705000000   20.357352191600000    0.093492120504379   -0.022972993552685   -0.124788567423820
184    6.763220400299998    9.107466423800000   18.561644792599999    0.022854050621390    0.070371419191360   -0.000013199867681
8    9.023071933099999   12.485355956499999   20.212877979400002    0.122644126415253    0.008453041315079   -0.206725865602493
16   12.129850316399997   10.388957636400002   20.212877979400002    0.122637853026390   -0.008460327982903   -0.206701070070267
80    9.022811199800000    9.367123031200000   18.561644792599999   -0.017792312428355    0.065398022532463   -0.000000593718141
104    9.928480344900001   10.472344887900000   20.357352191600000    0.093516722321510    0.022984869778156   -0.124805442988873
