# Structure data of Mn11Si19 (2x2x2 conventional) 

960 atoms
2 atom types

0.0 10.9818706512 xlo xhi
0.0 10.9818706512 ylo yhi
0.0 95.4443817139 zlo zhi
0.000000    0.000000    0.000000   xy xz yz

Masses

1 54.938049  # Mn
2 28.0855  # Si

Atoms  # atomic

1 1 0.0 2.7454676628 24.9885727513
2 1 0.0 2.7454676628 72.7107636083
3 1 0.0 8.2364029884 24.9885727513
4 1 0.0 8.2364029884 72.7107636083
5 1 5.4909353256 2.7454676628 24.9885727513
6 1 5.4909353256 2.7454676628 72.7107636083
7 1 5.4909353256 8.2364029884 24.9885727513
8 1 5.4909353256 8.2364029884 72.7107636083
9 1 0.0 2.7454676628 20.5315547276
10 1 0.0 2.7454676628 68.2537441529
11 1 0.0 8.2364029884 20.5315547276
12 1 0.0 8.2364029884 68.2537441529
13 1 5.4909353256 2.7454676628 20.5315547276
14 1 5.4909353256 2.7454676628 68.2537441529
15 1 5.4909353256 8.2364029884 20.5315547276
16 1 5.4909353256 8.2364029884 68.2537441529
17 1 2.7454676628 0.0 5.3219132495
18 1 2.7454676628 0.0 53.0441038201
19 1 2.7454676628 5.4909353256 5.3219132495
20 1 2.7454676628 5.4909353256 53.0441038201
21 1 8.2364029884 0.0 5.3219132495
22 1 8.2364029884 0.0 53.0441038201
23 1 8.2364029884 5.4909353256 5.3219132495
24 1 8.2364029884 5.4909353256 53.0441038201
25 1 2.7454676628 2.7454676628 45.458258999
26 1 2.7454676628 2.7454676628 93.180449856
27 1 2.7454676628 8.2364029884 45.458258999
28 1 2.7454676628 8.2364029884 93.180449856
29 1 8.2364029884 2.7454676628 45.458258999
30 1 8.2364029884 2.7454676628 93.180449856
31 1 8.2364029884 8.2364029884 45.458258999
32 1 8.2364029884 8.2364029884 93.180449856
33 1 2.7454676628 0.0 27.190637561
34 1 2.7454676628 0.0 74.912828418
35 1 2.7454676628 5.4909353256 27.190637561
36 1 2.7454676628 5.4909353256 74.912828418
37 1 8.2364029884 0.0 27.190637561
38 1 8.2364029884 0.0 74.912828418
39 1 8.2364029884 5.4909353256 27.190637561
40 1 8.2364029884 5.4909353256 74.912828418
41 1 2.7454676628 2.7454676628 36.7841250774
42 1 2.7454676628 2.7454676628 84.506313071
43 1 2.7454676628 8.2364029884 36.7841250774
44 1 2.7454676628 8.2364029884 84.506313071
45 1 8.2364029884 2.7454676628 36.7841250774
46 1 8.2364029884 2.7454676628 84.506313071
47 1 8.2364029884 8.2364029884 36.7841250774
48 1 8.2364029884 8.2364029884 84.506313071
49 1 2.7454676628 0.0 22.7336181056
50 1 2.7454676628 0.0 70.4558089626
51 1 2.7454676628 5.4909353256 22.7336181056
52 1 2.7454676628 5.4909353256 70.4558089626
53 1 8.2364029884 0.0 22.7336181056
54 1 8.2364029884 0.0 70.4558089626
55 1 8.2364029884 5.4909353256 22.7336181056
56 1 8.2364029884 5.4909353256 70.4558089626
57 1 0.0 2.7454676628 33.7050124906
58 1 0.0 2.7454676628 81.4272033475
59 1 0.0 8.2364029884 33.7050124906
60 1 0.0 8.2364029884 81.4272033475
61 1 5.4909353256 2.7454676628 33.7050124906
62 1 5.4909353256 2.7454676628 81.4272033475
63 1 5.4909353256 8.2364029884 33.7050124906
64 1 5.4909353256 8.2364029884 81.4272033475
65 1 2.7454676628 0.0 44.3926487244
66 1 2.7454676628 0.0 92.1148395813
67 1 2.7454676628 5.4909353256 44.3926487244
68 1 2.7454676628 5.4909353256 92.1148395813
69 1 8.2364029884 0.0 44.3926487244
70 1 8.2364029884 0.0 92.1148395813
71 1 8.2364029884 5.4909353256 44.3926487244
72 1 8.2364029884 5.4909353256 92.1148395813
73 1 0.0 2.7454676628 29.1830083917
74 1 0.0 2.7454676628 76.9051992486
75 1 0.0 8.2364029884 29.1830083917
76 1 0.0 8.2364029884 76.9051992486
77 1 5.4909353256 2.7454676628 29.1830083917
78 1 5.4909353256 2.7454676628 76.9051992486
79 1 5.4909353256 8.2364029884 29.1830083917
80 1 5.4909353256 8.2364029884 76.9051992486
81 1 2.7454676628 0.0 14.0171783664
82 1 2.7454676628 0.0 61.7393692233
83 1 2.7454676628 5.4909353256 14.0171783664
84 1 2.7454676628 5.4909353256 61.7393692233
85 1 8.2364029884 0.0 14.0171783664
86 1 8.2364029884 0.0 61.7393692233
87 1 8.2364029884 5.4909353256 14.0171783664
88 1 8.2364029884 5.4909353256 61.7393692233
89 1 2.7454676628 0.0 40.1400808699
90 1 2.7454676628 0.0 87.8622688636
91 1 2.7454676628 5.4909353256 40.1400808699
92 1 2.7454676628 5.4909353256 87.8622688636
93 1 8.2364029884 0.0 40.1400808699
94 1 8.2364029884 0.0 87.8622688636
95 1 8.2364029884 5.4909353256 40.1400808699
96 1 8.2364029884 5.4909353256 87.8622688636
97 1 0.0 0.0 43.4289328673
98 1 0.0 0.0 91.1511237243
99 1 0.0 5.4909353256 43.4289328673
100 1 0.0 5.4909353256 91.1511237243
101 1 5.4909353256 0.0 43.4289328673
102 1 5.4909353256 0.0 91.1511237243
103 1 5.4909353256 5.4909353256 43.4289328673
104 1 5.4909353256 5.4909353256 91.1511237243
105 1 0.0 0.0 21.5971635705
106 1 0.0 0.0 69.3193544275
107 1 0.0 5.4909353256 21.5971635705
108 1 0.0 5.4909353256 69.3193544275
109 1 5.4909353256 0.0 21.5971635705
110 1 5.4909353256 0.0 69.3193544275
111 1 5.4909353256 5.4909353256 21.5971635705
112 1 5.4909353256 5.4909353256 69.3193544275
113 1 0.0 2.7454676628 37.8782737948
114 1 0.0 2.7454676628 85.6004646518
115 1 0.0 8.2364029884 37.8782737948
116 1 0.0 8.2364029884 85.6004646518
117 1 5.4909353256 2.7454676628 37.8782737948
118 1 5.4909353256 2.7454676628 85.6004646518
119 1 5.4909353256 8.2364029884 37.8782737948
120 1 5.4909353256 8.2364029884 85.6004646518
121 1 0.0 0.0 12.9230296489
122 1 0.0 0.0 60.6452176426
123 1 0.0 5.4909353256 12.9230296489
124 1 0.0 5.4909353256 60.6452176426
125 1 5.4909353256 0.0 12.9230296489
126 1 5.4909353256 0.0 60.6452176426
127 1 5.4909353256 5.4909353256 12.9230296489
128 1 5.4909353256 5.4909353256 60.6452176426
129 1 2.7454676628 2.7454676628 28.1543534181
130 1 2.7454676628 2.7454676628 75.876544275
131 1 2.7454676628 8.2364029884 28.1543534181
132 1 2.7454676628 8.2364029884 75.876544275
133 1 8.2364029884 2.7454676628 28.1543534181
134 1 8.2364029884 2.7454676628 75.876544275
135 1 8.2364029884 8.2364029884 28.1543534181
136 1 8.2364029884 8.2364029884 75.876544275
137 1 2.7454676628 2.7454676628 2.263931667
138 1 2.7454676628 2.7454676628 49.9861227149
139 1 2.7454676628 8.2364029884 2.263931667
140 1 2.7454676628 8.2364029884 49.9861227149
141 1 8.2364029884 2.7454676628 2.263931667
142 1 8.2364029884 2.7454676628 49.9861227149
143 1 8.2364029884 8.2364029884 2.263931667
144 1 8.2364029884 8.2364029884 49.9861227149
145 1 0.0 0.0 0.0
146 1 0.0 0.0 47.722190857
147 1 0.0 5.4909353256 0.0
148 1 0.0 5.4909353256 47.722190857
149 1 5.4909353256 0.0 0.0
150 1 5.4909353256 0.0 47.722190857
151 1 5.4909353256 5.4909353256 0.0
152 1 5.4909353256 5.4909353256 47.722190857
153 1 0.0 0.0 34.799161208
154 1 0.0 0.0 82.5213549283
155 1 0.0 5.4909353256 34.799161208
156 1 0.0 5.4909353256 82.5213549283
157 1 5.4909353256 0.0 34.799161208
158 1 5.4909353256 0.0 82.5213549283
159 1 5.4909353256 5.4909353256 34.799161208
160 1 5.4909353256 5.4909353256 82.5213549283
161 1 2.7454676628 2.7454676628 6.4484381329
162 1 2.7454676628 2.7454676628 54.1706310896
163 1 2.7454676628 8.2364029884 6.4484381329
164 1 2.7454676628 8.2364029884 54.1706310896
165 1 8.2364029884 2.7454676628 6.4484381329
166 1 8.2364029884 2.7454676628 54.1706310896
167 1 8.2364029884 8.2364029884 6.4484381329
168 1 8.2364029884 8.2364029884 54.1706310896
169 1 2.7454676628 0.0 18.5391824653
170 1 2.7454676628 0.0 66.2613733222
171 1 2.7454676628 5.4909353256 18.5391824653
172 1 2.7454676628 5.4909353256 66.2613733222
173 1 8.2364029884 0.0 18.5391824653
174 1 8.2364029884 0.0 66.2613733222
175 1 8.2364029884 5.4909353256 18.5391824653
176 1 8.2364029884 5.4909353256 66.2613733222
177 1 2.7454676628 2.7454676628 41.2737534876
178 1 2.7454676628 2.7454676628 88.9959472079
179 1 2.7454676628 8.2364029884 41.2737534876
180 1 2.7454676628 8.2364029884 88.9959472079
181 1 8.2364029884 2.7454676628 41.2737534876
182 1 8.2364029884 2.7454676628 88.9959472079
183 1 8.2364029884 8.2364029884 41.2737534876
184 1 8.2364029884 8.2364029884 88.9959472079
185 1 2.7454676628 2.7454676628 10.9380665431
186 1 2.7454676628 2.7454676628 58.6602594998
187 1 2.7454676628 8.2364029884 10.9380665431
188 1 2.7454676628 8.2364029884 58.6602594998
189 1 8.2364029884 2.7454676628 10.9380665431
190 1 8.2364029884 2.7454676628 58.6602594998
191 1 8.2364029884 8.2364029884 10.9380665431
192 1 8.2364029884 8.2364029884 58.6602594998
193 1 0.0 2.7454676628 16.2789868731
194 1 0.0 2.7454676628 64.0011791617
195 1 0.0 8.2364029884 16.2789868731
196 1 0.0 8.2364029884 64.0011791617
197 1 5.4909353256 2.7454676628 16.2789868731
198 1 5.4909353256 2.7454676628 64.0011791617
199 1 5.4909353256 8.2364029884 16.2789868731
200 1 5.4909353256 8.2364029884 64.0011791617
201 1 0.0 2.7454676628 3.3295409872
202 1 0.0 2.7454676628 51.0517329895
203 1 0.0 8.2364029884 3.3295409872
204 1 0.0 8.2364029884 51.0517329895
205 1 5.4909353256 2.7454676628 3.3295409872
206 1 5.4909353256 2.7454676628 51.0517329895
207 1 5.4909353256 8.2364029884 3.3295409872
208 1 5.4909353256 8.2364029884 51.0517329895
209 1 2.7454676628 0.0 1.1274773229
210 1 2.7454676628 0.0 48.8496681798
211 1 2.7454676628 5.4909353256 1.1274773229
212 1 2.7454676628 5.4909353256 48.8496681798
213 1 8.2364029884 0.0 1.1274773229
214 1 8.2364029884 0.0 48.8496681798
215 1 8.2364029884 5.4909353256 1.1274773229
216 1 8.2364029884 5.4909353256 48.8496681798
217 1 0.0 2.7454676628 7.5821085553
218 1 0.0 2.7454676628 55.3042979806
219 1 0.0 8.2364029884 7.5821085553
220 1 0.0 8.2364029884 55.3042979806
221 1 5.4909353256 2.7454676628 7.5821085553
222 1 5.4909353256 2.7454676628 55.3042979806
223 1 5.4909353256 8.2364029884 7.5821085553
224 1 5.4909353256 8.2364029884 55.3042979806
225 1 2.7454676628 2.7454676628 19.5678374389
226 1 2.7454676628 2.7454676628 67.2900282958
227 1 2.7454676628 8.2364029884 19.5678374389
228 1 2.7454676628 8.2364029884 67.2900282958
229 1 8.2364029884 2.7454676628 19.5678374389
230 1 8.2364029884 2.7454676628 67.2900282958
231 1 8.2364029884 8.2364029884 19.5678374389
232 1 8.2364029884 8.2364029884 67.2900282958
233 1 2.7454676628 0.0 31.4432054155
234 1 2.7454676628 0.0 79.1653991358
235 1 2.7454676628 5.4909353256 31.4432054155
236 1 2.7454676628 5.4909353256 79.1653991358
237 1 8.2364029884 0.0 31.4432054155
238 1 8.2364029884 0.0 79.1653991358
239 1 8.2364029884 5.4909353256 31.4432054155
240 1 8.2364029884 5.4909353256 79.1653991358
241 1 0.0 0.0 4.2932576078
242 1 0.0 0.0 52.0154488466
243 1 0.0 5.4909353256 4.2932576078
244 1 0.0 5.4909353256 52.0154488466
245 1 5.4909353256 0.0 4.2932576078
246 1 5.4909353256 0.0 52.0154488466
247 1 5.4909353256 5.4909353256 4.2932576078
248 1 5.4909353256 5.4909353256 52.0154488466
249 1 2.7454676628 0.0 35.7916431427
250 1 2.7454676628 0.0 83.5138339997
251 1 2.7454676628 5.4909353256 35.7916431427
252 1 2.7454676628 5.4909353256 83.5138339997
253 1 8.2364029884 0.0 35.7916431427
254 1 8.2364029884 0.0 83.5138339997
255 1 8.2364029884 5.4909353256 35.7916431427
256 1 8.2364029884 5.4909353256 83.5138339997
257 1 2.7454676628 2.7454676628 23.8610954285
258 1 2.7454676628 2.7454676628 71.5832862854
259 1 2.7454676628 8.2364029884 23.8610954285
260 1 2.7454676628 8.2364029884 71.5832862854
261 1 8.2364029884 2.7454676628 23.8610954285
262 1 8.2364029884 2.7454676628 71.5832862854
263 1 8.2364029884 8.2364029884 23.8610954285
264 1 8.2364029884 8.2364029884 71.5832862854
265 1 0.0 0.0 30.3095327978
266 1 0.0 0.0 78.0317207914
267 1 0.0 5.4909353256 30.3095327978
268 1 0.0 5.4909353256 78.0317207914
269 1 5.4909353256 0.0 30.3095327978
270 1 5.4909353256 0.0 78.0317207914
271 1 5.4909353256 5.4909353256 30.3095327978
272 1 5.4909353256 5.4909353256 78.0317207914
273 1 0.0 0.0 39.0178515564
274 1 0.0 0.0 86.7400424134
275 1 0.0 5.4909353256 39.0178515564
276 1 0.0 5.4909353256 86.7400424134
277 1 5.4909353256 0.0 39.0178515564
278 1 5.4909353256 0.0 86.7400424134
279 1 5.4909353256 5.4909353256 39.0178515564
280 1 5.4909353256 5.4909353256 86.7400424134
281 1 0.0 2.7454676628 46.5947135341
282 1 0.0 2.7454676628 94.316904391
283 1 0.0 8.2364029884 46.5947135341
284 1 0.0 8.2364029884 94.316904391
285 1 5.4909353256 2.7454676628 46.5947135341
286 1 5.4909353256 2.7454676628 94.316904391
287 1 5.4909353256 8.2364029884 46.5947135341
288 1 5.4909353256 8.2364029884 94.316904391
289 1 2.7454676628 2.7454676628 32.565434729
290 1 2.7454676628 2.7454676628 80.287625586
291 1 2.7454676628 8.2364029884 32.565434729
292 1 2.7454676628 8.2364029884 80.287625586
293 1 8.2364029884 2.7454676628 32.565434729
294 1 8.2364029884 2.7454676628 80.287625586
295 1 8.2364029884 8.2364029884 32.565434729
296 1 8.2364029884 8.2364029884 80.287625586
297 1 2.7454676628 0.0 9.8439162986
298 1 2.7454676628 0.0 57.5661079191
299 1 2.7454676628 5.4909353256 9.8439162986
300 1 2.7454676628 5.4909353256 57.5661079191
301 1 8.2364029884 0.0 9.8439162986
302 1 8.2364029884 0.0 57.5661079191
303 1 8.2364029884 5.4909353256 9.8439162986
304 1 8.2364029884 5.4909353256 57.5661079191
305 1 0.0 2.7454676628 11.9305477142
306 1 0.0 2.7454676628 59.6527385712
307 1 0.0 8.2364029884 11.9305477142
308 1 0.0 8.2364029884 59.6527385712
309 1 5.4909353256 2.7454676628 11.9305477142
310 1 5.4909353256 2.7454676628 59.6527385712
311 1 5.4909353256 8.2364029884 11.9305477142
312 1 5.4909353256 8.2364029884 59.6527385712
313 1 0.0 0.0 26.1250272864
314 1 0.0 0.0 73.8472181434
315 1 0.0 5.4909353256 26.1250272864
316 1 0.0 5.4909353256 73.8472181434
317 1 5.4909353256 0.0 26.1250272864
318 1 5.4909353256 0.0 73.8472181434
319 1 5.4909353256 5.4909353256 26.1250272864
320 1 5.4909353256 5.4909353256 73.8472181434
321 1 2.7454676628 2.7454676628 15.1567561279
322 1 2.7454676628 2.7454676628 62.8789469849
323 1 2.7454676628 8.2364029884 15.1567561279
324 1 2.7454676628 8.2364029884 62.8789469849
325 1 8.2364029884 2.7454676628 15.1567561279
326 1 8.2364029884 2.7454676628 62.8789469849
327 1 8.2364029884 8.2364029884 15.1567561279
328 1 8.2364029884 8.2364029884 62.8789469849
329 1 0.0 0.0 17.4126566275
330 1 0.0 0.0 65.1348460528
331 1 0.0 5.4909353256 17.4126566275
332 1 0.0 5.4909353256 65.1348460528
333 1 5.4909353256 0.0 17.4126566275
334 1 5.4909353256 0.0 65.1348460528
335 1 5.4909353256 5.4909353256 17.4126566275
336 1 5.4909353256 5.4909353256 65.1348460528
337 1 0.0 2.7454676628 42.4002778938
338 1 0.0 2.7454676628 90.1224687507
339 1 0.0 8.2364029884 42.4002778938
340 1 0.0 8.2364029884 90.1224687507
341 1 5.4909353256 2.7454676628 42.4002778938
342 1 5.4909353256 2.7454676628 90.1224687507
343 1 5.4909353256 8.2364029884 42.4002778938
344 1 5.4909353256 8.2364029884 90.1224687507
345 1 0.0 0.0 8.7043393005
346 1 0.0 0.0 56.4265301575
347 1 0.0 5.4909353256 8.7043393005
348 1 0.0 5.4909353256 56.4265301575
349 1 5.4909353256 0.0 8.7043393005
350 1 5.4909353256 0.0 56.4265301575
351 1 5.4909353256 5.4909353256 8.7043393005
352 1 5.4909353256 5.4909353256 56.4265301575
353 2 1.7561697767 1.8790161336 13.1184500162
354 2 1.7561697767 1.8790161336 60.8406437364
355 2 1.7561697767 7.3699512945 13.1184500162
356 2 1.7561697767 7.3699512945 60.8406437364
357 2 7.2471047728 1.8790161336 13.1184500162
358 2 7.2471047728 1.8790161336 60.8406437364
359 2 7.2471047728 7.3699512945 13.1184500162
360 2 7.2471047728 7.3699512945 60.8406437364
361 2 1.9050835803 1.4209126707 8.1929501168
362 2 1.9050835803 1.4209126707 55.9151409737
363 2 1.9050835803 6.911848161 8.1929501168
364 2 1.9050835803 6.911848161 55.9151409737
365 2 7.3960189059 1.4209126707 8.1929501168
366 2 7.3960189059 1.4209126707 55.9151409737
367 2 7.3960189059 6.911848161 8.1929501168
368 2 7.3960189059 6.911848161 55.9151409737
369 2 1.9056746575 3.9409781632 17.0267368144
370 2 1.9056746575 3.9409781632 64.7489262397
371 2 1.9056746575 9.4319131703 17.0267368144
372 2 1.9056746575 9.4319131703 64.7489262397
373 2 7.3966099831 3.9409781632 17.0267368144
374 2 7.3966099831 3.9409781632 64.7489262397
375 2 7.3966099831 9.4319131703 17.0267368144
376 2 7.3966099831 9.4319131703 64.7489262397
377 2 0.8436755907 3.8671619272 14.3433247037
378 2 0.8436755907 3.8671619272 62.0655155606
379 2 0.8436755907 9.3580972528 14.3433247037
380 2 0.8436755907 9.3580972528 62.0655155606
381 2 6.3346112458 3.8671619272 14.3433247037
382 2 6.3346112458 3.8671619272 62.0655155606
383 2 6.3346112458 9.3580972528 14.3433247037
384 2 6.3346112458 9.3580972528 62.0655155606
385 2 3.6543878978 0.9089201472 11.9305477142
386 2 3.6543878978 0.9089201472 59.6527385712
387 2 3.6543878978 6.3998555606 11.9305477142
388 2 3.6543878978 6.3998555606 59.6527385712
389 2 9.1453232234 0.9089201472 11.9305477142
390 2 9.1453232234 0.9089201472 59.6527385712
391 2 9.1453232234 6.3998555606 11.9305477142
392 2 9.1453232234 6.3998555606 59.6527385712
393 2 3.6232882724 4.534754775 20.6768670807
394 2 3.6232882724 4.534754775 68.399056506
395 2 3.6232882724 10.0256897711 20.6768670807
396 2 3.6232882724 10.0256897711 68.399056506
397 2 9.1142239165 4.534754775 20.6768670807
398 2 9.1142239165 4.534754775 68.399056506
399 2 9.1142239165 10.0256897711 20.6768670807
400 2 9.1142239165 10.0256897711 68.399056506
401 2 0.9561804628 3.6232882724 27.0453223445
402 2 0.9561804628 3.6232882724 74.7675160648
403 2 0.9561804628 9.1142239165 27.0453223445
404 2 0.9561804628 9.1142239165 74.7675160648
405 2 6.4471155468 3.6232882724 27.0453223445
406 2 6.4471155468 3.6232882724 74.7675160648
407 2 6.4471155468 9.1142239165 27.0453223445
408 2 6.4471155468 9.1142239165 74.7675160648
409 2 3.5859306171 1.2597072656 47.0419799371
410 2 3.5859306171 1.2597072656 94.7641679307
411 2 3.5859306171 6.7506425033 47.0419799371
412 2 3.5859306171 6.7506425033 94.7641679307
413 2 9.0768662721 1.2597072656 47.0419799371
414 2 9.0768662721 1.2597072656 94.7641679307
415 2 9.0768662721 6.7506425033 47.0419799371
416 2 9.0768662721 6.7506425033 94.7641679307
417 2 1.0733354982 0.8461118199 45.7425376084
418 2 1.0733354982 0.8461118199 93.464725602
419 2 1.0733354982 6.3370469039 45.7425376084
420 2 1.0733354982 6.3370469039 93.464725602
421 2 6.5642705712 0.8461118199 45.7425376084
422 2 6.5642705712 0.8461118199 93.464725602
423 2 6.5642705712 6.3370469039 45.7425376084
424 2 6.5642705712 6.3370469039 93.464725602
425 2 1.5499569977 1.9056746575 30.6954527063
426 2 1.5499569977 1.9056746575 78.4176463311
427 2 1.5499569977 7.3966099831 30.6954527063
428 2 1.5499569977 7.3966099831 78.4176463311
429 2 7.0408921586 1.9056746575 30.6954527063
430 2 7.0408921586 1.9056746575 78.4176463311
431 2 7.0408921586 7.3966099831 30.6954527063
432 2 7.0408921586 7.3966099831 78.4176463311
433 2 3.5852606681 1.5499569977 17.0267368144
434 2 3.5852606681 1.5499569977 64.7489262397
435 2 3.5852606681 7.0408921586 17.0267368144
436 2 3.5852606681 7.0408921586 64.7489262397
437 2 9.0761959937 1.5499569977 17.0267368144
438 2 9.0761959937 1.5499569977 64.7489262397
439 2 9.0761959937 7.0408921586 17.0267368144
440 2 9.0761959937 7.0408921586 64.7489262397
441 2 4.2954248252 0.8397929174 6.834358614
442 2 4.2954248252 0.8397929174 54.5565509026
443 2 4.2954248252 6.3307283309 6.834358614
444 2 4.2954248252 6.3307283309 54.5565509026
445 2 9.7863604693 0.8397929174 6.834358614
446 2 9.7863604693 0.8397929174 54.5565509026
447 2 9.7863604693 6.3307283309 6.834358614
448 2 9.7863604693 6.3307283309 54.5565509026
449 2 1.4857603204 4.6504723713 24.5413063483
450 2 1.4857603204 4.6504723713 72.2635000686
451 2 1.4857603204 10.1414073675 24.5413063483
452 2 1.4857603204 10.1414073675 72.2635000686
453 2 6.9766958107 4.6504723713 24.5413063483
454 2 6.9766958107 4.6504723713 72.2635000686
455 2 6.9766958107 10.1414073675 24.5413063483
456 2 6.9766958107 10.1414073675 72.2635000686
457 2 4.613114716 1.7892871122 44.5379639409
458 2 4.613114716 1.7892871122 92.2601519345
459 2 4.613114716 7.2802221083 44.5379639409
460 2 4.613114716 7.2802221083 92.2601519345
461 2 10.1040497231 1.7892871122 44.5379639409
462 2 10.1040497231 1.7892871122 92.2601519345
463 2 10.1040497231 7.2802221083 44.5379639409
464 2 10.1040497231 7.2802221083 92.2601519345
465 2 1.4209126707 3.5858517453 39.5292407402
466 2 1.4209126707 3.5858517453 87.2514315971
467 2 1.4209126707 9.0767870709 39.5292407402
468 2 1.4209126707 9.0767870709 87.2514315971
469 2 6.911848161 3.5858517453 39.5292407402
470 2 6.911848161 3.5858517453 87.2514315971
471 2 6.911848161 9.0767870709 39.5292407402
472 2 6.911848161 9.0767870709 87.2514315971
473 2 1.8909672751 4.4579991864 29.4317169798
474 2 1.8909672751 4.4579991864 77.1539078367
475 2 1.8909672751 9.9489348415 29.4317169798
476 2 1.8909672751 9.9489348415 77.1539078367
477 2 7.381902436 4.4579991864 29.4317169798
478 2 7.381902436 4.4579991864 77.1539078367
479 2 7.381902436 9.9489348415 29.4317169798
480 2 7.381902436 9.9489348415 77.1539078367
481 2 0.8397929174 1.1955106651 40.8878335791
482 2 0.8397929174 1.1955106651 88.6100216682
483 2 0.8397929174 6.6864461554 40.8878335791
484 2 0.8397929174 6.6864461554 88.6100216682
485 2 6.3307283309 1.1955106651 40.8878335791
486 2 6.3307283309 1.1955106651 88.6100216682
487 2 6.3307283309 6.6864461554 40.8878335791
488 2 6.3307283309 6.6864461554 88.6100216682
489 2 1.7892871122 0.8778204449 3.1842283477
490 2 1.7892871122 0.8778204449 50.9064206363
491 2 1.7892871122 6.3687556058 3.1842283477
492 2 1.7892871122 6.3687556058 50.9064206363
493 2 7.2802221083 0.8778204449 3.1842283477
494 2 7.2802221083 0.8778204449 50.9064206363
495 2 7.2802221083 6.3687556058 3.1842283477
496 2 7.2802221083 6.3687556058 50.9064206363
497 2 1.8993559308 1.6721320878 25.840748677
498 2 1.8993559308 1.6721320878 73.5629423973
499 2 1.8993559308 7.1630670839 25.840748677
500 2 1.8993559308 7.1630670839 73.5629423973
501 2 7.3902914101 1.6721320878 25.840748677
502 2 7.3902914101 1.6721320878 73.5629423973
503 2 7.3902914101 7.1630670839 25.840748677
504 2 7.3902914101 7.1630670839 73.5629423973
505 2 4.6472597349 1.6237733984 14.3433247037
506 2 4.6472597349 1.6237733984 62.0655155606
507 2 4.6472597349 7.114708724 14.3433247037
508 2 4.6472597349 7.114708724 62.0655155606
509 2 10.138194731 1.6237733984 14.3433247037
510 2 10.138194731 1.6237733984 62.0655155606
511 2 10.138194731 7.114708724 14.3433247037
512 2 10.138194731 7.114708724 62.0655155606
513 2 4.1663801688 4.6505512431 15.6681453117
514 2 4.1663801688 4.6505512431 63.3903361687
515 2 4.1663801688 10.1414865687 15.6681453117
516 2 4.1663801688 10.1414865687 63.3903361687
517 2 9.6573158238 4.6505512431 15.6681453117
518 2 9.6573158238 4.6505512431 63.3903361687
519 2 9.6573158238 10.1414865687 15.6681453117
520 2 9.6573158238 10.1414865687 63.3903361687
521 2 4.6448234288 1.0733354982 1.979652485
522 2 4.6448234288 1.0733354982 49.7018412422
523 2 4.6448234288 6.5642705712 1.979652485
524 2 4.6448234288 6.5642705712 49.7018412422
525 2 10.135758425 1.0733354982 1.979652485
526 2 10.135758425 1.0733354982 49.7018412422
527 2 10.135758425 6.5642705712 1.979652485
528 2 10.135758425 6.5642705712 49.7018412422
529 2 1.7125315236 4.6364351027 42.1515693057
530 2 1.7125315236 4.6364351027 89.8737601626
531 2 1.7125315236 10.1273707577 42.1515693057
532 2 1.7125315236 10.1273707577 89.8737601626
533 2 7.2034671787 4.6364351027 42.1515693057
534 2 7.2034671787 4.6364351027 89.8737601626
535 2 7.2034671787 10.1273707577 42.1515693057
536 2 7.2034671787 10.1273707577 89.8737601626
537 2 4.0700228196 1.9050835803 39.5292407402
538 2 4.0700228196 1.9050835803 87.2514315971
539 2 4.0700228196 7.3960189059 39.5292407402
540 2 4.0700228196 7.3960189059 87.2514315971
541 2 9.5609578158 1.9050835803 39.5292407402
542 2 9.5609578158 1.9050835803 87.2514315971
543 2 9.5609578158 7.3960189059 39.5292407402
544 2 9.5609578158 7.3960189059 87.2514315971
545 2 1.8549914246 1.8137780345 43.3461219812
546 2 1.8549914246 1.8137780345 91.0683100703
547 2 1.8549914246 7.3047135248 43.3461219812
548 2 1.8549914246 7.3047135248 91.0683100703
549 2 7.3459265855 1.8137780345 43.3461219812
550 2 7.3459265855 1.8137780345 91.0683100703
551 2 7.3459265855 7.3047135248 43.3461219812
552 2 7.3459265855 7.3047135248 91.0683100703
553 2 0.9089201472 1.8365475925 35.7916431427
554 2 0.9089201472 1.8365475925 83.5138339997
555 2 0.9089201472 7.3274827534 35.7916431427
556 2 0.9089201472 7.3274827534 83.5138339997
557 2 6.3998555606 1.8365475925 35.7916431427
558 2 6.3998555606 1.8365475925 83.5138339997
559 2 6.3998555606 7.3274827534 35.7916431427
560 2 6.3998555606 7.3274827534 83.5138339997
561 2 3.5915795596 3.8188032378 25.840748677
562 2 3.5915795596 3.8188032378 73.5629423973
563 2 3.5915795596 9.3097388929 25.840748677
564 2 3.5915795596 9.3097388929 73.5629423973
565 2 9.0825152146 3.8188032378 25.840748677
566 2 9.0825152146 3.8188032378 73.5629423973
567 2 9.0825152146 9.3097388929 25.840748677
568 2 9.0825152146 9.3097388929 73.5629423973
569 2 1.6237733984 0.8436755907 33.3788661533
570 2 1.6237733984 0.8436755907 81.1010570102
571 2 1.6237733984 6.3346112458 33.3788661533
572 2 1.6237733984 6.3346112458 81.1010570102
573 2 7.114708724 0.8436755907 33.3788661533
574 2 7.114708724 0.8436755907 81.1010570102
575 2 7.114708724 6.3346112458 33.3788661533
576 2 7.114708724 6.3346112458 81.1010570102
577 2 3.8671619272 4.6472597349 33.3788661533
578 2 3.8671619272 4.6472597349 81.1010570102
579 2 3.8671619272 10.138194731 33.3788661533
580 2 3.8671619272 10.138194731 81.1010570102
581 2 9.3580972528 4.6472597349 33.3788661533
582 2 9.3580972528 4.6472597349 81.1010570102
583 2 9.3580972528 10.138194731 33.3788661533
584 2 9.3580972528 10.138194731 81.1010570102
585 2 1.2597072656 1.9050047085 0.6802120652
586 2 1.2597072656 1.9050047085 48.4024046401
587 2 1.2597072656 7.3959397047 0.6802120652
588 2 1.2597072656 7.3959397047 48.4024046401
589 2 6.7506425033 1.9050047085 0.6802120652
590 2 6.7506425033 1.9050047085 48.4024046401
591 2 6.7506425033 7.3959397047 0.6802120652
592 2 6.7506425033 7.3959397047 48.4024046401
593 2 4.3692410612 1.9017920721 9.5177700567
594 2 4.3692410612 1.9017920721 57.2399615818
595 2 4.3692410612 7.3927270682 9.5177700567
596 2 4.3692410612 7.3927270682 57.2399615818
597 2 9.8601763868 1.9017920721 9.5177700567
598 2 9.8601763868 1.9017920721 57.2399615818
599 2 9.8601763868 7.3927270682 9.5177700567
600 2 9.8601763868 7.3927270682 57.2399615818
601 2 4.6511423203 4.2954248252 40.8878335791
602 2 4.6511423203 4.2954248252 88.6100216682
603 2 4.6511423203 9.7863604693 40.8878335791
604 2 4.6511423203 9.7863604693 88.6100216682
605 2 10.1420776459 4.2954248252 40.8878335791
606 2 10.1420776459 4.2954248252 88.6100216682
607 2 10.1420776459 9.7863604693 40.8878335791
608 2 10.1420776459 9.7863604693 88.6100216682
609 2 1.1955106651 4.6511423203 6.834358614
610 2 1.1955106651 4.6511423203 54.5565509026
611 2 1.1955106651 10.1420776459 6.834358614
612 2 1.1955106651 10.1420776459 54.5565509026
613 2 6.6864461554 4.6511423203 6.834358614
614 2 6.6864461554 4.6511423203 54.5565509026
615 2 6.6864461554 10.1420776459 6.834358614
616 2 6.6864461554 10.1420776459 54.5565509026
617 2 4.5592455326 4.6004592522 28.2371643042
618 2 4.5592455326 4.6004592522 75.959357929
619 2 4.5592455326 10.0913942483 28.2371643042
620 2 4.5592455326 10.0913942483 75.959357929
621 2 10.0501811876 4.6004592522 28.2371643042
622 2 10.0501811876 4.6004592522 75.959357929
623 2 10.0501811876 10.0913942483 28.2371643042
624 2 10.0501811876 10.0913942483 75.959357929
625 2 1.8137780345 3.6359437362 4.3760681122
626 2 1.8137780345 3.6359437362 52.0982568693
627 2 1.8137780345 9.1268793913 4.3760681122
628 2 1.8137780345 9.1268793913 52.0982568693
629 2 7.3047135248 3.6359437362 4.3760681122
630 2 7.3047135248 3.6359437362 52.0982568693
631 2 7.3047135248 9.1268793913 4.3760681122
632 2 7.3047135248 9.1268793913 52.0982568693
633 2 4.4175997506 4.6448234288 45.7425376084
634 2 4.4175997506 4.6448234288 93.464725602
635 2 4.4175997506 10.135758425 45.7425376084
636 2 4.4175997506 10.135758425 93.464725602
637 2 9.9085347467 4.6448234288 45.7425376084
638 2 9.9085347467 4.6448234288 93.464725602
639 2 9.9085347467 10.135758425 45.7425376084
640 2 9.9085347467 10.135758425 93.464725602
641 2 3.9409781632 3.5852606681 30.6954527063
642 2 3.9409781632 3.5852606681 78.4176463311
643 2 3.9409781632 9.0761959937 30.6954527063
644 2 3.9409781632 9.0761959937 78.4176463311
645 2 9.4319131703 3.5852606681 30.6954527063
646 2 9.4319131703 3.5852606681 78.4176463311
647 2 9.4319131703 9.0761959937 30.6954527063
648 2 9.4319131703 9.0761959937 78.4176463311
649 2 4.2312281479 3.5859306171 0.6802120652
650 2 4.2312281479 3.5859306171 48.4024046401
651 2 4.2312281479 9.0768662721 0.6802120652
652 2 4.2312281479 9.0768662721 48.4024046401
653 2 9.7221634735 3.5859306171 0.6802120652
654 2 9.7221634735 3.5859306171 48.4024046401
655 2 9.7221634735 9.0768662721 0.6802120652
656 2 9.7221634735 9.0768662721 48.4024046401
657 2 0.8904761503 4.5592455326 19.4850279844
658 2 0.8904761503 4.5592455326 67.207220273
659 2 0.8904761503 10.0501811876 19.4850279844
660 2 0.8904761503 10.0501811876 67.207220273
661 2 6.3814117285 4.5592455326 19.4850279844
662 2 6.3814117285 4.5592455326 67.207220273
663 2 6.3814117285 10.0501811876 19.4850279844
664 2 6.3814117285 10.0501811876 67.207220273
665 2 4.6004592522 0.9316896283 19.4850279844
666 2 4.6004592522 0.9316896283 67.207220273
667 2 4.6004592522 6.4226247892 19.4850279844
668 2 4.6004592522 6.4226247892 67.207220273
669 2 10.0913942483 0.9316896283 19.4850279844
670 2 10.0913942483 0.9316896283 67.207220273
671 2 10.0913942483 6.4226247892 19.4850279844
672 2 10.0913942483 6.4226247892 67.207220273
673 2 3.5891432535 4.3692410612 38.2044201321
674 2 3.5891432535 4.3692410612 85.9266109891
675 2 3.5891432535 9.8601763868 38.2044201321
676 2 3.5891432535 9.8601763868 85.9266109891
677 2 9.0800789086 4.3692410612 38.2044201321
678 2 9.0800789086 4.3692410612 85.9266109891
679 2 9.0800789086 9.8601763868 38.2044201321
680 2 9.0800789086 9.8601763868 85.9266109891
681 2 0.9316896283 0.8904761503 28.2371643042
682 2 0.9316896283 0.8904761503 75.959357929
683 2 0.9316896283 6.3814117285 28.2371643042
684 2 0.9316896283 6.3814117285 75.959357929
685 2 6.4226247892 0.8904761503 28.2371643042
686 2 6.4226247892 0.8904761503 75.959357929
687 2 6.4226247892 6.3814117285 28.2371643042