# Structure data of Ir (2x2x2 conventional) 

32 atoms
1 atom types

0.0 7.7514557838 xlo xhi
0.0 7.7514557838 ylo yhi
0.0 7.7514557838 zlo zhi
0.000000    0.000000    0.000000   xy xz yz

Masses

1 192.217  # Ir

Atoms  # atomic

1 1 0.0 0.0 0.0
2 1 0.0 0.0 3.8757278919
3 1 0.0 3.8757278919 0.0
4 1 0.0 3.8757278919 3.8757278919
5 1 3.8757278919 0.0 0.0
6 1 3.8757278919 0.0 3.8757278919
7 1 3.8757278919 3.8757278919 0.0
8 1 3.8757278919 3.8757278919 3.8757278919
9 1 0.0 1.937863946 1.937863946
10 1 0.0 1.937863946 5.8135918378
11 1 0.0 5.8135918378 1.937863946
12 1 0.0 5.8135918378 5.8135918378
13 1 3.8757278919 1.937863946 1.937863946
14 1 3.8757278919 1.937863946 5.8135918378
15 1 3.8757278919 5.8135918378 1.937863946
16 1 3.8757278919 5.8135918378 5.8135918378
17 1 1.937863946 0.0 1.937863946
18 1 1.937863946 0.0 5.8135918378
19 1 1.937863946 3.8757278919 1.937863946
20 1 1.937863946 3.8757278919 5.8135918378
21 1 5.8135918378 0.0 1.937863946
22 1 5.8135918378 0.0 5.8135918378
23 1 5.8135918378 3.8757278919 1.937863946
24 1 5.8135918378 3.8757278919 5.8135918378
25 1 1.937863946 1.937863946 0.0
26 1 1.937863946 1.937863946 3.8757278919
27 1 1.937863946 5.8135918378 0.0
28 1 1.937863946 5.8135918378 3.8757278919
29 1 5.8135918378 1.937863946 0.0
30 1 5.8135918378 1.937863946 3.8757278919
31 1 5.8135918378 5.8135918378 0.0
32 1 5.8135918378 5.8135918378 3.8757278919
