ITEM: TIMESTEP
0
ITEM: NUMBER OF ATOMS

ITEM: BOX BOUNDS xy xz yz pp pp pp
0.0000000000000000e+00  0.0000000000000000e+00
0.0000000000000000e+00  0.0000000000000000e+00
0.0000000000000000e+00  0.0000000000000000e+00
ITEM: ATOMS id xu yu zu fx fy fz
