# Structure data of Au (2x2x2 conventional) 

32 atoms
1 atom types

0.0 8.3425760269 xlo xhi
0.0 8.3425760269 ylo yhi
0.0 8.3425760269 zlo zhi
0.000000    0.000000    0.000000   xy xz yz

Masses

1 196.96655  # Au

Atoms  # atomic

1 1 0.0 0.0 0.0
2 1 0.0 0.0 4.1712880134
3 1 0.0 4.1712880134 0.0
4 1 0.0 4.1712880134 4.1712880134
5 1 4.1712880134 0.0 0.0
6 1 4.1712880134 0.0 4.1712880134
7 1 4.1712880134 4.1712880134 0.0
8 1 4.1712880134 4.1712880134 4.1712880134
9 1 0.0 2.0856440067 2.0856440067
10 1 0.0 2.0856440067 6.2569320202
11 1 0.0 6.2569320202 2.0856440067
12 1 0.0 6.2569320202 6.2569320202
13 1 4.1712880134 2.0856440067 2.0856440067
14 1 4.1712880134 2.0856440067 6.2569320202
15 1 4.1712880134 6.2569320202 2.0856440067
16 1 4.1712880134 6.2569320202 6.2569320202
17 1 2.0856440067 0.0 2.0856440067
18 1 2.0856440067 0.0 6.2569320202
19 1 2.0856440067 4.1712880134 2.0856440067
20 1 2.0856440067 4.1712880134 6.2569320202
21 1 6.2569320202 0.0 2.0856440067
22 1 6.2569320202 0.0 6.2569320202
23 1 6.2569320202 4.1712880134 2.0856440067
24 1 6.2569320202 4.1712880134 6.2569320202
25 1 2.0856440067 2.0856440067 0.0
26 1 2.0856440067 2.0856440067 4.1712880134
27 1 2.0856440067 6.2569320202 0.0
28 1 2.0856440067 6.2569320202 4.1712880134
29 1 6.2569320202 2.0856440067 0.0
30 1 6.2569320202 2.0856440067 4.1712880134
31 1 6.2569320202 6.2569320202 0.0
32 1 6.2569320202 6.2569320202 4.1712880134
