ITEM: TIMESTEP
0
ITEM: NUMBER OF ATOMS
64
ITEM: BOX BOUNDS xy xz yz pp pp pp
0.0000000000000000e+00 1.0800000000000001e+01 0.0000000000000000e+00
0.0000000000000000e+00 1.0800000000000001e+01 0.0000000000000000e+00
0.0000000000000000e+00 1.0800000000000001e+01 0.0000000000000000e+00
ITEM: ATOMS id xu yu zu fx fy fz
9    1.350000000000000    1.350000000000000    1.350000000000000   -0.140212386846542   -0.000002047076123   -0.000006498798029
17    2.700000000000000    0.000000000000000    2.700000000000000   -0.029358625411987    0.023614231497049   -0.023652419447899
19    2.700000000000000    2.700000000000000    0.000000000000000   -0.029373457655311   -0.023658243939281    0.023566804826260
33    5.400000000000000    0.000000000000000    0.000000000000000    0.001487617264502    0.000208313576877    0.000186198391020
35    5.400000000000000    2.700000000000000    2.700000000000000    0.001516755204648   -0.000231709156651   -0.000199899426661
41    6.750000000000000    1.350000000000000    1.350000000000000    0.009451176971197   -0.000012027478078    0.000005337671610
1   -0.039999999999999    0.000000000000000    0.000000000000000    0.360273182392120    0.008172655478120    0.008147921413183
3   -0.039999999999999    2.700000000000000    2.700000000000000    0.360253870487213   -0.008166100829840   -0.008163331076503
49    8.100000000000000    0.000000000000000    2.700000000000000   -0.032528575509787   -0.006531446240842    0.006540476344526
51    8.100000000000000    2.700000000000000    0.000000000000000   -0.032503549009562    0.006544769741595   -0.006563961971551
5    0.000000000000000    5.400000000000000    0.000000000000000    0.009187920950353    0.009798538871109   -0.009843825362623
13    1.350000000000000    6.750000000000000    1.350000000000000   -0.005917266942561    0.000018078513676    0.000021290994482
21    2.700000000000000    5.400000000000000    2.700000000000000   -0.014414669945836   -0.014294527471066    0.009104414843023
27    4.050000000000000    4.050000000000000    1.350000000000000    0.006967954337597    0.003526940941811    0.000705092097633
37    5.400000000000000    5.400000000000000    0.000000000000000   -0.001090185251087    0.000211014179513   -0.000236172287259
45    6.750000000000000    6.750000000000000    1.350000000000000    0.003782860701904   -0.000025437999284    0.000021288346034
53    8.100000000000000    5.400000000000000    2.700000000000000   -0.016020268201828    0.016426946967840    0.009682820178568
59    9.449999999999999    4.050000000000000    1.350000000000000   -0.073332309722900    0.070949405431747   -0.074989452958107
7    0.000000000000000    8.100000000000000    2.700000000000000    0.009230908006430   -0.009820997714996    0.009803816676140
23    2.700000000000000    8.100000000000000    0.000000000000000   -0.014406912028790    0.014314133673906   -0.009129629470408
31    4.050000000000000    9.449999999999999    1.350000000000000    0.006995347328484   -0.003510428825393   -0.000693862559274
39    5.400000000000000    8.100000000000000    2.700000000000000   -0.001137463375926   -0.000197032873984    0.000219726935029
55    8.100000000000000    8.100000000000000    0.000000000000000   -0.015986487269402   -0.016434902325273   -0.009746090508997
63    9.449999999999999    9.449999999999999    1.350000000000000   -0.073331810534000   -0.070944234728813    0.074982039630413
2    0.000000000000000    0.000000000000000    5.400000000000000    0.009193830192089   -0.009834783151746    0.009820766746998
10    1.350000000000000    1.350000000000000    6.750000000000000   -0.005920032970607   -0.000001513835741    0.000061077327700
20    2.700000000000000    2.700000000000000    5.400000000000000   -0.014396555721760    0.009118985384703   -0.014296176843345
25    4.050000000000000    1.350000000000000    4.050000000000000    0.007009131833911    0.000685906328727    0.003535654395819
34    5.400000000000000    0.000000000000000    5.400000000000000   -0.001125966315158   -0.000203695875825    0.000213123741560
42    6.750000000000000    1.350000000000000    6.750000000000000    0.003766200505197   -0.000021327577997    0.000019975035684
52    8.100000000000000    2.700000000000000    5.400000000000000   -0.016012776643038    0.009714091196656    0.016468890011311
57    9.449999999999999    1.350000000000000    4.050000000000000   -0.073302805423737   -0.075000174343586    0.070904508233070
6    0.000000000000000    5.400000000000000    5.400000000000000    0.009745024144650   -0.008992705494165   -0.008978645317256
11    1.350000000000000    4.050000000000000    4.050000000000000   -0.069307789206505   -0.065814152359962   -0.065831199288368
14    1.350000000000000    6.750000000000000    6.750000000000000    0.002663967665285    0.000022412161343    0.000018521939637
28    4.050000000000000    4.050000000000000    6.750000000000000    0.001759956823662    0.001371040125377    0.002832812257111
29    4.050000000000000    6.750000000000000    4.050000000000000    0.001773759257048    0.002823083894327    0.001376921660267
38    5.400000000000000    5.400000000000000    5.400000000000000    0.000033589079976   -0.000187466852367   -0.000200278125703
43    6.750000000000000    4.050000000000000    4.050000000000000    0.004597840830684   -0.000572900520638   -0.000602893647738
46    6.750000000000000    6.750000000000000    6.750000000000000   -0.000242720008828    0.000001995183993   -0.000003153458238
60    9.449999999999999    4.050000000000000    6.750000000000000   -0.001849241205491   -0.004981574136764    0.000963163911365
61    9.449999999999999    6.750000000000000    4.050000000000000   -0.001881075091660    0.000935982679948   -0.004956657998264
15    1.350000000000000    9.449999999999999    4.050000000000000   -0.005924649536610   -0.004650411196053    0.004648124799132
24    2.700000000000000    8.100000000000000    5.400000000000000    0.000532423146069    0.000201083021238   -0.000182266579941
32    4.050000000000000    9.449999999999999    6.750000000000000    0.001754711498506   -0.001375371706672   -0.002811993006617
47    6.750000000000000    9.449999999999999    4.050000000000000    0.003768188646063    0.004123904742301   -0.004110373556614
56    8.100000000000000    8.100000000000000    5.400000000000000    0.000521500245668    0.000180119939614   -0.000174702960066
64    9.449999999999999    9.449999999999999    6.750000000000000   -0.001876470400020    0.004983632825315   -0.000916838878766
4    0.000000000000000    2.700000000000000    8.100000000000000    0.009175638668239    0.009792448952794   -0.009810545481741
18    2.700000000000000    0.000000000000000    8.100000000000000   -0.014414009638131   -0.009113074280322    0.014313478954136
26    4.050000000000000    1.350000000000000    9.449999999999999    0.006988400593400   -0.000671565765515   -0.003524456406012
36    5.400000000000000    2.700000000000000    8.100000000000000   -0.001126884599216    0.000184542033821   -0.000178574846359
50    8.100000000000000    0.000000000000000    8.100000000000000   -0.016009349375963   -0.009718078188598   -0.016423378139734
58    9.449999999999999    1.350000000000000    9.449999999999999   -0.073315173387527    0.075016506016254   -0.070969462394714
12    1.350000000000000    4.050000000000000    9.449999999999999   -0.005907841026783    0.004629563540220   -0.004639925435185
22    2.700000000000000    5.400000000000000    8.100000000000000    0.000531061552465   -0.000192463980056    0.000214754953049
30    4.050000000000000    6.750000000000000    9.449999999999999    0.001743604778312   -0.002807877492160   -0.001407617819495
44    6.750000000000000    4.050000000000000    9.449999999999999    0.003772064577788   -0.004123223945498    0.004111914895475
54    8.100000000000000    5.400000000000000    8.100000000000000    0.000512818340212   -0.000191890736460    0.000188835634617
62    9.449999999999999    6.750000000000000    9.449999999999999   -0.001863848185167   -0.000923096318729    0.004984904080629
8    0.000000000000000    8.100000000000000    8.100000000000000    0.009750407189131    0.008981892839074    0.008983029983938
16    1.350000000000000    9.449999999999999    9.449999999999999   -0.069284468889236    0.065828837454319    0.065806835889816
40    5.400000000000000    8.100000000000000    8.100000000000000    0.000021652842406    0.000202494673431    0.000206775963306
48    6.750000000000000    9.449999999999999    9.449999999999999    0.004612331744283    0.000623028958216    0.000582937384024
