ITEM: TIMESTEP
0
ITEM: NUMBER OF ATOMS
64
ITEM: BOX BOUNDS xy xz yz pp pp pp
0.0000000000000000e+00 1.0800000000000001e+01 0.0000000000000000e+00
0.0000000000000000e+00 1.0800000000000001e+01 0.0000000000000000e+00
0.0000000000000000e+00 1.0800000000000001e+01 0.0000000000000000e+00
ITEM: ATOMS id xu yu zu fx fy fz
3    0.000000000000000    2.700000000000000    2.700000000000000    0.078723058104515   -0.075102791190147   -0.075106307864189
9    1.390000000000000    1.350000000000000    1.350000000000000   -0.427192300558090   -0.070740625262260   -0.070784360170364
17    2.700000000000000    0.000000000000000    2.700000000000000    0.055246442556381   -0.061969392001629    0.056492988020182
19    2.700000000000000    2.700000000000000    0.000000000000000    0.055226221680641    0.056461490690708   -0.062001276761293
33    5.400000000000000    0.000000000000000    0.000000000000000   -0.003100663889199    0.000759887509048    0.000742199830711
35    5.400000000000000    2.700000000000000    2.700000000000000   -0.004600088112056   -0.000993109541014   -0.000957874115556
41    6.750000000000000    1.350000000000000    1.350000000000000    0.003118909196928   -0.000777903944254   -0.000749817583710
1   -0.039999999999999    0.000000000000000    0.000000000000000    0.427191376686096    0.070758923888206    0.070727542042732
49    8.100000000000000    0.000000000000000    2.700000000000000   -0.021607799455523    0.008877886459231    0.017356663942337
51    8.100000000000000    2.700000000000000    0.000000000000000   -0.021580612286925    0.017366062849760    0.008842361159623
5    0.000000000000000    5.400000000000000    0.000000000000000    0.002246560528874    0.001255788374692   -0.003583426587284
13    1.350000000000000    6.750000000000000    1.350000000000000   -0.002260445617139   -0.001208921661600    0.003552309237421
21    2.700000000000000    5.400000000000000    2.700000000000000    0.003413940779865   -0.000225907933782   -0.003360072150826
27    4.050000000000000    4.050000000000000    1.350000000000000    0.018248945474625    0.018976902589202    0.011403298936784
37    5.400000000000000    5.400000000000000    0.000000000000000   -0.002850711811334   -0.002546178409830    0.001545490697026
45    6.750000000000000    6.750000000000000    1.350000000000000    0.002897909143940    0.002527459291741   -0.001554186688736
53    8.100000000000000    5.400000000000000    2.700000000000000   -0.001667980337515    0.002735646208748    0.001569226384163
59    9.449999999999999    4.050000000000000    1.350000000000000    0.011434372514486   -0.014961964450777    0.005614377092570
7    0.000000000000000    8.100000000000000    2.700000000000000    0.012903925031424   -0.011160173453391    0.013412918895483
23    2.700000000000000    8.100000000000000    0.000000000000000   -0.011442150920630    0.014964902773499   -0.005617387592793
31    4.050000000000000    9.449999999999999    1.350000000000000    0.021560078486800   -0.017358070239425   -0.008877148851752
39    5.400000000000000    8.100000000000000    2.700000000000000   -0.002055569319054    0.002358619589359   -0.001372081693262
55    8.100000000000000    8.100000000000000    0.000000000000000   -0.018269766122103   -0.018995467573404   -0.011475964449346
63    9.449999999999999    9.449999999999999    1.350000000000000   -0.055227428674698   -0.056462477892637    0.061908371746540
2    0.000000000000000    0.000000000000000    5.400000000000000    0.002262617461383   -0.003571731038392    0.001251768902875
10    1.350000000000000    1.350000000000000    6.750000000000000   -0.002247864846140    0.003540793200955   -0.001198877696879
20    2.700000000000000    2.700000000000000    5.400000000000000    0.003439508844167   -0.003375443629920   -0.000254869461060
25    4.050000000000000    1.350000000000000    4.050000000000000    0.018259780481458    0.011438926681876    0.019010340794921
34    5.400000000000000    0.000000000000000    5.400000000000000   -0.002881247084588    0.001566878752783   -0.002532742451876
42    6.750000000000000    1.350000000000000    6.750000000000000    0.002883057110012   -0.001594889326952    0.002574375132099
52    8.100000000000000    2.700000000000000    5.400000000000000   -0.001659140572883    0.001598661765456    0.002776277251542
57    9.449999999999999    1.350000000000000    4.050000000000000    0.011456914246082    0.005589474923909   -0.014989927411079
6    0.000000000000000    5.400000000000000    5.400000000000000   -0.000818022468593    0.001633679494262    0.001639761030674
11    1.350000000000000    4.050000000000000    4.050000000000000   -0.007839106023312   -0.007246478460729   -0.007231169380248
14    1.350000000000000    6.750000000000000    6.750000000000000    0.000786602846347   -0.001611626939848   -0.001616954337806
28    4.050000000000000    4.050000000000000    6.750000000000000   -0.000417632923927   -0.000278290390270    0.000405190279707
29    4.050000000000000    6.750000000000000    4.050000000000000   -0.000397565221647    0.000402951322030   -0.000267907016678
38    5.400000000000000    5.400000000000000    5.400000000000000    0.000192743726075    0.000238890759647    0.000225640833378
43    6.750000000000000    4.050000000000000    4.050000000000000   -0.000063873012550    0.000031559815397    0.000000966276275
46    6.750000000000000    6.750000000000000    6.750000000000000   -0.000184786273167   -0.000215294712689   -0.000220774469199
60    9.449999999999999    4.050000000000000    6.750000000000000    0.001000350341201   -0.001510982285254    0.001790007576346
61    9.449999999999999    6.750000000000000    4.050000000000000    0.000974446302280    0.001759411767125   -0.001481420942582
15    1.350000000000000    9.449999999999999    4.050000000000000   -0.012860478833318   -0.013418151997030    0.011148750782013
24    2.700000000000000    8.100000000000000    5.400000000000000   -0.000983108766377    0.001540242228657   -0.001752363052219
32    4.050000000000000    9.449999999999999    6.750000000000000    0.001642286661081   -0.001593221328221   -0.002722153672948
47    6.750000000000000    9.449999999999999    4.050000000000000    0.002049484057352    0.001396126113832   -0.002349943388253
56    8.100000000000000    8.100000000000000    5.400000000000000    0.000421743490733    0.000264314585365   -0.000385468068998
64    9.449999999999999    9.449999999999999    6.750000000000000   -0.003424445167184    0.003353497944772    0.000276274222415
4    0.000000000000000    2.700000000000000    8.100000000000000    0.012839736416936    0.013407595455647   -0.011140166781843
18    2.700000000000000    0.000000000000000    8.100000000000000   -0.011443695984781   -0.005608636420220    0.014970701187849
26    4.050000000000000    1.350000000000000    9.449999999999999    0.021544963121414   -0.008844548836350   -0.017363788560033
36    5.400000000000000    2.700000000000000    8.100000000000000   -0.002039729151875   -0.001399602857418    0.002383388346061
50    8.100000000000000    0.000000000000000    8.100000000000000   -0.018290814012289   -0.011447527445853   -0.018982402980328
58    9.449999999999999    1.350000000000000    9.449999999999999   -0.055215630680323    0.061938703060150   -0.056490756571293
12    1.350000000000000    4.050000000000000    9.449999999999999   -0.012832030653954    0.011124243028462   -0.013407753780484
22    2.700000000000000    5.400000000000000    8.100000000000000   -0.000985766761005   -0.001772005460225    0.001544522354379
30    4.050000000000000    6.750000000000000    9.449999999999999    0.001635895809159   -0.002705604536459   -0.001623650779948
44    6.750000000000000    4.050000000000000    9.449999999999999    0.002049215370789   -0.002367162145674    0.001375517575070
54    8.100000000000000    5.400000000000000    8.100000000000000    0.000414853624534   -0.000400129618356    0.000275161175523
62    9.449999999999999    6.750000000000000    9.449999999999999   -0.003406744915992    0.000262869521976    0.003358406713232
8    0.000000000000000    8.100000000000000    8.100000000000000    0.007827062159777    0.007248500362039    0.007248403504491
16    1.350000000000000    9.449999999999999    9.449999999999999   -0.078733824193478    0.075108259916306    0.075086340308189
40    5.400000000000000    8.100000000000000    8.100000000000000    0.000045068052714   -0.000008411705494    0.000000850297511
48    6.750000000000000    9.449999999999999    9.449999999999999    0.004642962943763    0.000983588863164    0.000942610669881
