ITEM: TIMESTEP
0
ITEM: NUMBER OF ATOMS
64
ITEM: BOX BOUNDS xy xz yz pp pp pp
0.0000000000000000e+00 1.0800000000000001e+01 0.0000000000000000e+00
0.0000000000000000e+00 1.0800000000000001e+01 0.0000000000000000e+00
0.0000000000000000e+00 1.0800000000000001e+01 0.0000000000000000e+00
ITEM: ATOMS id xu yu zu fx fy fz
3    0.000000000000000    2.700000000000000    2.700000000000000    0.076871141791344   -0.080059215426445   -0.076678700745106
9    1.350000000000000    1.310000000000000    1.350000000000000   -0.072930455207825    0.280612647533417   -0.071871608495712
17    2.700000000000000    0.000000000000000    2.700000000000000    0.055550292134285   -0.060028955340385    0.055705763399601
19    2.700000000000000    2.700000000000000    0.000000000000000   -0.082343220710754   -0.085590675473213    0.076655514538288
33    5.400000000000000    0.000000000000000    0.000000000000000    0.000809473509435   -0.003107028082013    0.003421900793910
35    5.400000000000000    2.700000000000000    2.700000000000000    0.001028244849294   -0.003189530689269    0.003286920022219
41    6.750000000000000    1.350000000000000    1.350000000000000    0.004864334128797   -0.001525278436020   -0.000843416200951
1   -0.039999999999999    0.000000000000000    0.000000000000000    0.284531533718109   -0.068224906921387   -0.067313641309738
49    8.100000000000000    0.000000000000000    2.700000000000000   -0.015517097897828    0.006616380531341    0.012740618549287
51    8.100000000000000    2.700000000000000    0.000000000000000   -0.017205538228154    0.013213355094194    0.006201289128512
5    0.000000000000000    5.400000000000000    0.000000000000000   -0.001562420395203    0.004956500139087   -0.000931125134230
13    1.350000000000000    6.750000000000000    1.350000000000000   -0.002991666551679    0.000533531187102    0.003503429470584
21    2.700000000000000    5.400000000000000    2.700000000000000    0.001153470133431    0.005243677645922    0.000926353037357
27    4.050000000000000    4.050000000000000    1.350000000000000   -0.012708856724203   -0.012132020667195   -0.007511044852436
37    5.400000000000000    5.400000000000000    0.000000000000000    0.001660707872361    0.001933833700605   -0.001642629969865
45    6.750000000000000    6.750000000000000    1.350000000000000    0.001890599378385    0.001523291459307   -0.001561332726851
53    8.100000000000000    5.400000000000000    2.700000000000000   -0.002370852977037    0.002073997166008    0.001562167075463
59    9.449999999999999    4.050000000000000    1.350000000000000    0.011518524028361   -0.015434130094945    0.005651735700667
7    0.000000000000000    8.100000000000000    2.700000000000000    0.010699754580855   -0.005018930882215    0.008940350264311
23    2.700000000000000    8.100000000000000    0.000000000000000   -0.015500985085964    0.019306875765324   -0.008275795727968
31    4.050000000000000    9.449999999999999    1.350000000000000    0.021238580346107   -0.017120230942965   -0.008767309598625
39    5.400000000000000    8.100000000000000    2.700000000000000   -0.002699762349948    0.001669912482612   -0.001375221996568
55    8.100000000000000    8.100000000000000    0.000000000000000   -0.013647572137415   -0.014320787042379   -0.008166789077222
63    9.449999999999999    9.449999999999999    1.350000000000000   -0.086391016840935   -0.087966628372669    0.081423170864582
2    0.000000000000000    0.000000000000000    5.400000000000000    0.002791101112962   -0.003137726336718   -0.000703657860868
10    1.350000000000000    1.350000000000000    6.750000000000000   -0.002976362593472    0.002830254379660   -0.000968127686065
20    2.700000000000000    2.700000000000000    5.400000000000000    0.003767890390009   -0.002941515296698    0.001282767741941
25    4.050000000000000    1.350000000000000    4.050000000000000    0.011643338948488    0.011403873562813    0.012351464480162
34    5.400000000000000    0.000000000000000    5.400000000000000   -0.002502785529941    0.001242414698936   -0.001515793032013
42    6.750000000000000    1.350000000000000    6.750000000000000    0.001873630331829   -0.001063797157258    0.002560921711847
52    8.100000000000000    2.700000000000000    5.400000000000000   -0.001409247517586    0.001309028826654    0.001834223861806
57    9.449999999999999    1.350000000000000    4.050000000000000    0.005940077826381    0.005795507691801   -0.009757976979017
6    0.000000000000000    5.400000000000000    5.400000000000000   -0.001097010099329    0.001933517865837    0.002611477859318
11    1.350000000000000    4.050000000000000    4.050000000000000   -0.007787733804435   -0.013067426159978   -0.012943413108587
14    1.350000000000000    6.750000000000000    6.750000000000000    0.001320738461800   -0.002633408410475   -0.001642937073484
28    4.050000000000000    4.050000000000000    6.750000000000000   -0.000114931695862    0.000025687448215    0.000005771580618
29    4.050000000000000    6.750000000000000    4.050000000000000    0.000051994080422    0.000068816501880   -0.000044038752094
38    5.400000000000000    5.400000000000000    5.400000000000000   -0.000166843645275   -0.000136489048600   -0.000232984311879
43    6.750000000000000    4.050000000000000    4.050000000000000   -0.000374437629944    0.000513147737365    0.000256829225691
46    6.750000000000000    6.750000000000000    6.750000000000000   -0.000122862868011   -0.000147909071529   -0.000217636435991
60    9.449999999999999    4.050000000000000    6.750000000000000    0.001235803822055   -0.001273415167816    0.001823408063501
61    9.449999999999999    6.750000000000000    4.050000000000000    0.001454426674172    0.001518233562820   -0.001717488281429
15    1.350000000000000    9.449999999999999    4.050000000000000   -0.012662079185247   -0.019693661481142    0.017271313816309
24    2.700000000000000    8.100000000000000    5.400000000000000   -0.001320220530033    0.001843177014962   -0.002775659784675
32    4.050000000000000    9.449999999999999    6.750000000000000    0.001896554022096   -0.001355409505777   -0.002722972771153
47    6.750000000000000    9.449999999999999    4.050000000000000    0.001734232297167    0.001839482225478   -0.002546057105064
56    8.100000000000000    8.100000000000000    5.400000000000000    0.000036363751860   -0.000101225537946    0.000080469915702
64    9.449999999999999    9.449999999999999    6.750000000000000   -0.003083044197410    0.003717561485246    0.000878651277162
4    0.000000000000000    2.700000000000000    8.100000000000000    0.006321200635284    0.006777134723961   -0.010785865597427
18    2.700000000000000    0.000000000000000    8.100000000000000   -0.018131785094738   -0.012196936644614    0.015246804803610
26    4.050000000000000    1.350000000000000    9.449999999999999   -0.004027890041471    0.010186637751758    0.008095339871943
36    5.400000000000000    2.700000000000000    8.100000000000000    0.001496735028923    0.001518227276392   -0.001827313797548
50    8.100000000000000    0.000000000000000    8.100000000000000   -0.014653206802905   -0.008463115431368   -0.014631755650043
58    9.449999999999999    1.350000000000000    9.449999999999999   -0.079890616238117    0.081563904881477   -0.081541888415813
12    1.350000000000000    4.050000000000000    9.449999999999999    0.006125178188086   -0.013704758137465    0.011133341118693
22    2.700000000000000    5.400000000000000    8.100000000000000    0.001879362389445    0.001666105352342   -0.002626083791256
30    4.050000000000000    6.750000000000000    9.449999999999999    0.001713728532195   -0.002599393948913   -0.001439719926566
44    6.750000000000000    4.050000000000000    9.449999999999999    0.002115291077644   -0.002265085931867    0.001520399237052
54    8.100000000000000    5.400000000000000    8.100000000000000    0.000488767575007   -0.000307839422021    0.000270094227744
62    9.449999999999999    6.750000000000000    9.449999999999999   -0.003278730437160    0.000547531526536    0.003281396115199
8    0.000000000000000    8.100000000000000    8.100000000000000    0.010831865482032    0.010907706804574    0.011568102054298
16    1.350000000000000    9.449999999999999    9.449999999999999   -0.062265016138554    0.052719153463840    0.052647672593594
40    5.400000000000000    8.100000000000000    8.100000000000000    0.000189883066923    0.000075347721577   -0.000011912547052
48    6.750000000000000    9.449999999999999    9.449999999999999    0.005009355489165    0.001120970118791    0.000852307828609
