ITEM: TIMESTEP
0
ITEM: NUMBER OF ATOMS
64
ITEM: BOX BOUNDS xy xz yz pp pp pp
0.0000000000000000e+00 1.0800000000000001e+01 0.0000000000000000e+00
0.0000000000000000e+00 1.0800000000000001e+01 0.0000000000000000e+00
0.0000000000000000e+00 1.0800000000000001e+01 0.0000000000000000e+00
ITEM: ATOMS id xu yu zu fx fy fz
3    0.000000000000000    2.660000000000000    2.700000000000000    0.010179980657995    0.341828167438507   -0.009969021193683
9    1.350000000000000    1.350000000000000    1.350000000000000   -0.000378339260351   -0.137718647718430   -0.138851761817932
17    2.700000000000000    0.000000000000000    2.700000000000000    0.001570821972564   -0.007166509050876   -0.004844466689974
19    2.700000000000000    2.700000000000000    0.000000000000000   -0.004908118396997   -0.004748925566673   -0.000752378080506
33    5.400000000000000    0.000000000000000    0.000000000000000    0.001347627025098    0.000251934863627    0.000010249204934
35    5.400000000000000    2.700000000000000    2.700000000000000   -0.000021234474843   -0.000883657950908   -0.000187511206605
41    6.750000000000000    1.350000000000000    1.350000000000000    0.005352079868317   -0.003951112739742    0.002638564212248
1   -0.039999999999999    0.000000000000000    0.000000000000000    0.342562019824982   -0.015569677576423   -0.015739249065518
49    8.100000000000000    0.000000000000000    2.700000000000000   -0.032532144337893   -0.006516796536744    0.006530564278364
51    8.100000000000000    2.700000000000000    0.000000000000000   -0.007247586268932    0.025486540049314    0.018685461953282
5    0.000000000000000    5.400000000000000    0.000000000000000   -0.009742208756506   -0.014680933207273    0.014506958425045
13    1.350000000000000    6.750000000000000    1.350000000000000   -0.002045921515673    0.004004296846688    0.002608665963635
21    2.700000000000000    5.400000000000000    2.700000000000000   -0.014285393059254   -0.014404620043933    0.009105836041272
27    4.050000000000000    4.050000000000000    1.350000000000000    0.002990205073729   -0.000402148638386   -0.001912604435347
37    5.400000000000000    5.400000000000000    0.000000000000000   -0.001189300790429    0.000265794922598   -0.000069426198024
45    6.750000000000000    6.750000000000000    1.350000000000000   -0.000690100481734    0.004437097813934   -0.003171293530613
53    8.100000000000000    5.400000000000000    2.700000000000000    0.014797084033489   -0.014527345076203   -0.009126491844654
59    9.449999999999999    4.050000000000000    1.350000000000000    0.064378648996353   -0.071214348077774    0.064077511429787
7    0.000000000000000    8.100000000000000    2.700000000000000    0.009899776428938   -0.008309436962008    0.009791256859899
23    2.700000000000000    8.100000000000000    0.000000000000000   -0.014491456560791    0.014389986172318   -0.009270559065044
31    4.050000000000000    9.449999999999999    1.350000000000000    0.002511385828257    0.000984311103821    0.002492672763765
39    5.400000000000000    8.100000000000000    2.700000000000000   -0.000164876371855   -0.001177645055577    0.000208848738112
55    8.100000000000000    8.100000000000000    0.000000000000000   -0.016020655632019   -0.016295515000820   -0.009562534280121
63    9.449999999999999    9.449999999999999    1.350000000000000   -0.069528162479401   -0.066906757652760    0.072485953569412
2    0.000000000000000    0.000000000000000    5.400000000000000    0.009068878367543   -0.016291886568069    0.016257798299193
10    1.350000000000000    1.350000000000000    6.750000000000000   -0.006380708422512    0.000396188435843   -0.001683860900812
20    2.700000000000000    2.700000000000000    5.400000000000000   -0.008697425946593    0.009247520007193   -0.008753587491810
25    4.050000000000000    1.350000000000000    4.050000000000000    0.001266080071218   -0.001491667120717   -0.000843109912239
34    5.400000000000000    0.000000000000000    5.400000000000000   -0.000825271592475    0.000250542041613   -0.000018096296117
42    6.750000000000000    1.350000000000000    6.750000000000000    0.003437822917476   -0.000346401822753    0.001013614935800
52    8.100000000000000    2.700000000000000    5.400000000000000   -0.009553819894791    0.009819764643908    0.009990570135415
57    9.449999999999999    1.350000000000000    4.050000000000000   -0.074657231569290   -0.073632732033730    0.070900470018387
6    0.000000000000000    5.400000000000000    5.400000000000000    0.009588407352567   -0.014671768993139   -0.014543034136295
11    1.350000000000000    4.050000000000000    4.050000000000000   -0.066133201122284   -0.068940415978432   -0.065799757838249
14    1.350000000000000    6.750000000000000    6.750000000000000    0.002939578611404    0.000288715353236    0.000956026953645
28    4.050000000000000    4.050000000000000    6.750000000000000    0.001487423432991    0.001095898682252    0.001882839249447
29    4.050000000000000    6.750000000000000    4.050000000000000    0.002454588189721    0.002155945170671    0.001384299714118
38    5.400000000000000    5.400000000000000    5.400000000000000    0.000308015383780    0.000284782610834    0.000047790817916
43    6.750000000000000    4.050000000000000    4.050000000000000   -0.001254658214748   -0.002709235064685    0.003715589642525
46    6.750000000000000    6.750000000000000    6.750000000000000    0.000118376105092   -0.000374200550141   -0.000459228525870
60    9.449999999999999    4.050000000000000    6.750000000000000   -0.002232647966594   -0.004497604444623    0.002705225255340
61    9.449999999999999    6.750000000000000    4.050000000000000    0.000323930493323    0.006636867299676   -0.000597423058935
15    1.350000000000000    9.449999999999999    4.050000000000000   -0.003791124559939    0.001229694928043    0.000290947122267
24    2.700000000000000    8.100000000000000    5.400000000000000    0.000056115910411   -0.000060620412114   -0.000438528280938
32    4.050000000000000    9.449999999999999    6.750000000000000    0.002135201590136   -0.001745115034282   -0.002355205127969
47    6.750000000000000    9.449999999999999    4.050000000000000    0.004437088035047    0.003468847135082   -0.004108334891498
56    8.100000000000000    8.100000000000000    5.400000000000000    0.000074613606557   -0.000136247021146    0.000042011495680
64    9.449999999999999    9.449999999999999    6.750000000000000   -0.001556197414175    0.005313974805176   -0.001923580886796
4    0.000000000000000    2.700000000000000    8.100000000000000    0.009828621521592    0.009121641516685   -0.009786409325898
18    2.700000000000000    0.000000000000000    8.100000000000000   -0.014708152040839   -0.008818096481264    0.014712646603584
26    4.050000000000000    1.350000000000000    9.449999999999999    0.003483057720587    0.002198833040893    0.000649001682177
36    5.400000000000000    2.700000000000000    8.100000000000000   -0.000152792927111    0.000714693451300   -0.000171195977600
50    8.100000000000000    0.000000000000000    8.100000000000000   -0.016209155321121   -0.009476370178163   -0.016392130404711
58    9.449999999999999    1.350000000000000    9.449999999999999   -0.066839002072811    0.068497389554977   -0.070989578962326
12    1.350000000000000    4.050000000000000    9.449999999999999    0.000562004512176   -0.001865150523372   -0.004595038015395
22    2.700000000000000    5.400000000000000    8.100000000000000    0.000300075858831    0.000012126911315    0.000219457375351
30    4.050000000000000    6.750000000000000    9.449999999999999    0.001673799939454   -0.002715582959354   -0.001415286795236
44    6.750000000000000    4.050000000000000    9.449999999999999    0.000245032424573   -0.001202014740556   -0.000083925464423
54    8.100000000000000    5.400000000000000    8.100000000000000    0.000213174760574    0.000108730615466   -0.000205371063203
62    9.449999999999999    6.750000000000000    9.449999999999999   -0.004733679350466    0.002525038085878    0.000845176633447
8    0.000000000000000    8.100000000000000    8.100000000000000    0.009230401366949    0.008012537844479    0.008995343931019
16    1.350000000000000    9.449999999999999    9.449999999999999   -0.072321385145187    0.069454729557037    0.070092871785164
40    5.400000000000000    8.100000000000000    8.100000000000000   -0.000044235872338    0.000264911912382    0.000209852121770
48    6.750000000000000    9.449999999999999    9.449999999999999    0.004514289088547    0.000701617100276    0.000565854483284
