ITEM: TIMESTEP
0
ITEM: NUMBER OF ATOMS
64
ITEM: BOX BOUNDS xy xz yz pp pp pp
0.0000000000000000e+00 1.0800000000000001e+01 0.0000000000000000e+00
0.0000000000000000e+00 1.0800000000000001e+01 0.0000000000000000e+00
0.0000000000000000e+00 1.0800000000000001e+01 0.0000000000000000e+00
ITEM: ATOMS id xu yu zu fx fy fz
1    0.040000000000000    0.040000000000000    0.000000000000000   -0.364537775516510   -0.364541769027710   -0.023088831454515
3    0.000000000000000    2.700000000000000    2.700000000000000   -0.020607117563486    0.027040027081966    0.026914181187749
9    1.350000000000000    1.350000000000000    1.350000000000000    0.151018276810646    0.150992974638939    0.155032262206078
17    2.700000000000000    0.000000000000000    2.700000000000000    0.027060918509960   -0.020614113658667    0.026927230879664
19    2.700000000000000    2.700000000000000    0.000000000000000    0.034229945391417    0.034229036420584   -0.020518366247416
33    5.400000000000000    0.000000000000000    0.000000000000000   -0.001540025696158    0.000656659714878   -0.000193315558136
35    5.400000000000000    2.700000000000000    2.700000000000000    0.000096128729638   -0.000055586715462    0.000218381406739
41    6.750000000000000    1.350000000000000    1.350000000000000   -0.004608867224306    0.004095892887563   -0.002572090830654
49    8.100000000000000    0.000000000000000    2.700000000000000    0.022914828732610   -0.017516065388918   -0.022926192730665
51    8.100000000000000    2.700000000000000    0.000000000000000   -0.000112292531412    0.000257764360867   -0.000192003673874
5    0.000000000000000    5.400000000000000    0.000000000000000    0.000677182222717   -0.001533553353511   -0.000217506341869
13    1.350000000000000    6.750000000000000    1.350000000000000    0.004095403011888   -0.004607400391251   -0.002563751302660
21    2.700000000000000    5.400000000000000    2.700000000000000   -0.000038511498133    0.000122288474813    0.000203157309443
27    4.050000000000000    4.050000000000000    1.350000000000000   -0.004489765502512   -0.004490717314184   -0.003176243975759
37    5.400000000000000    5.400000000000000    0.000000000000000    0.001018270617351    0.000992199755274   -0.000046312750783
45    6.750000000000000    6.750000000000000    1.350000000000000   -0.004523256327957   -0.004556659143418    0.003290837164968
53    8.100000000000000    5.400000000000000    2.700000000000000   -0.000120237731608   -0.000322572392179   -0.000123867997900
59    9.449999999999999    4.050000000000000    1.350000000000000    0.003759792773053   -0.003526509040967    0.002689113374799
7    0.000000000000000    8.100000000000000    2.700000000000000   -0.017473660409451    0.022939918562770   -0.022924480959773
23    2.700000000000000    8.100000000000000    0.000000000000000    0.000263934605755   -0.000114113878226   -0.000204263560590
31    4.050000000000000    9.449999999999999    1.350000000000000   -0.003545306855813    0.003802255494520    0.002681201789528
39    5.400000000000000    8.100000000000000    2.700000000000000   -0.000321483734297   -0.000108368112706   -0.000081419246271
55    8.100000000000000    8.100000000000000    0.000000000000000    0.027934130281210    0.027920452877879    0.017311435192823
63    9.449999999999999    9.449999999999999    1.350000000000000    0.141377508640289    0.141376674175262   -0.136115580797195
2    0.000000000000000    0.000000000000000    5.400000000000000    0.000683717837092    0.000638799276203    0.000461189309135
10    1.350000000000000    1.350000000000000    6.750000000000000   -0.000346208369592   -0.000340642000083    0.001382149988785
20    2.700000000000000    2.700000000000000    5.400000000000000   -0.000238401291426   -0.000280299223959   -0.000214549916564
25    4.050000000000000    1.350000000000000    4.050000000000000   -0.003434727899730   -0.002810658188537   -0.004117780365050
34    5.400000000000000    0.000000000000000    5.400000000000000    0.000995862181298   -0.000534419086762   -0.000010960851796
42    6.750000000000000    1.350000000000000    6.750000000000000   -0.000302042113617    0.000315193901770   -0.000987773644738
52    8.100000000000000    2.700000000000000    5.400000000000000   -0.000231831290876   -0.000226070173085    0.000046092289267
57    9.449999999999999    1.350000000000000    4.050000000000000    0.006456883158535    0.006690617185086    0.000610133749433
6    0.000000000000000    5.400000000000000    5.400000000000000   -0.000560078478884    0.000971574336290   -0.000036017037928
11    1.350000000000000    4.050000000000000    4.050000000000000   -0.002837734995410   -0.003396153682843   -0.004084533080459
14    1.350000000000000    6.750000000000000    6.750000000000000    0.000318558537401   -0.000293821707601   -0.000998543808237
28    4.050000000000000    4.050000000000000    6.750000000000000    0.000349145848304    0.000343721942045   -0.000418095820351
29    4.050000000000000    6.750000000000000    4.050000000000000   -0.000108509761048   -0.000038952508476   -0.000001469918061
38    5.400000000000000    5.400000000000000    5.400000000000000   -0.000054134987295   -0.000041601248085    0.000010218471289
43    6.750000000000000    4.050000000000000    4.050000000000000   -0.000052781426348   -0.000096724717878   -0.000007977912901
46    6.750000000000000    6.750000000000000    6.750000000000000    0.000388686894439    0.000392925634515    0.000489705649670
60    9.449999999999999    4.050000000000000    6.750000000000000    0.000294914352708   -0.000293898716336    0.000956459203735
61    9.449999999999999    6.750000000000000    4.050000000000000   -0.003028742736205   -0.003656758461148    0.004330618306994
15    1.350000000000000    9.449999999999999    4.050000000000000    0.006691556889564    0.006435489747673    0.000634789234027
24    2.700000000000000    8.100000000000000    5.400000000000000   -0.000218242406845   -0.000178153510205    0.000002468703315
32    4.050000000000000    9.449999999999999    6.750000000000000   -0.000321799685480    0.000263554102276    0.000952429021709
47    6.750000000000000    9.449999999999999    4.050000000000000   -0.003650926053524   -0.003031271975487    0.004293319769204
56    8.100000000000000    8.100000000000000    5.400000000000000   -0.000333692267304   -0.000342118582921    0.000607197755016
64    9.449999999999999    9.449999999999999    6.750000000000000   -0.000537972897291   -0.000537441694178   -0.002112786052749
4    0.000000000000000    2.700000000000000    8.100000000000000   -0.000322185049299    0.006432280410081   -0.006570868194103
18    2.700000000000000    0.000000000000000    8.100000000000000    0.006452065426856   -0.000316607474815   -0.006560875568539
26    4.050000000000000    1.350000000000000    9.449999999999999   -0.005474264267832    0.002253679558635    0.004238425288349
36    5.400000000000000    2.700000000000000    8.100000000000000    0.000292735494440   -0.000504073104821    0.000302694359561
50    8.100000000000000    0.000000000000000    8.100000000000000    0.005686677992344    0.000015335681383    0.005428976379335
58    9.449999999999999    1.350000000000000    9.449999999999999    0.001342634204775    0.000651572365314    0.000261557986960
12    1.350000000000000    4.050000000000000    9.449999999999999    0.002255963161588   -0.005445108748972    0.004244449548423
22    2.700000000000000    5.400000000000000    8.100000000000000   -0.000483654439449    0.000261224107817    0.000326905690599
30    4.050000000000000    6.750000000000000    9.449999999999999    0.000705006881617    0.000654516974464   -0.000072691742389
44    6.750000000000000    4.050000000000000    9.449999999999999    0.000619337311946    0.000721665273886   -0.000057209399529
54    8.100000000000000    5.400000000000000    8.100000000000000   -0.000430901709478    0.000303099513985   -0.000181004987098
62    9.449999999999999    6.750000000000000    9.449999999999999    0.002118197735399   -0.006169153377414   -0.004487917292863
8    0.000000000000000    8.100000000000000    8.100000000000000    0.000015542143956    0.005713046528399    0.005434311926365
16    1.350000000000000    9.449999999999999    9.449999999999999    0.000645873835310    0.001340404269286    0.000268891570158
40    5.400000000000000    8.100000000000000    8.100000000000000    0.000293519580737   -0.000434545800090   -0.000177827663720
48    6.750000000000000    9.449999999999999    9.449999999999999   -0.006166020873934    0.002131123561412   -0.004507732577622
