ITEM: TIMESTEP
0
ITEM: NUMBER OF ATOMS
64
ITEM: BOX BOUNDS xy xz yz pp pp pp
0.0000000000000000e+00 1.0800000000000001e+01 0.0000000000000000e+00
0.0000000000000000e+00 1.0800000000000001e+01 0.0000000000000000e+00
0.0000000000000000e+00 1.0800000000000001e+01 0.0000000000000000e+00
ITEM: ATOMS id xu yu zu fx fy fz
1    0.010000000000000    0.000000000000000    0.000000000000000   -0.087176054716110   -0.000000596599421   -0.000030838506063
3    0.000000000000000    2.700000000000000    2.700000000000000   -0.002428920008242    0.002359695965424    0.002371815964580
9    1.350000000000000    1.350000000000000    1.350000000000000    0.017422053962946    0.017299812287092    0.017326377332211
17    2.700000000000000    0.000000000000000    2.700000000000000    0.003916321322322   -0.002403913065791    0.003911434207112
19    2.700000000000000    2.700000000000000    0.000000000000000    0.003915935754776    0.003905851859599   -0.002404094906524
33    5.400000000000000    0.000000000000000    0.000000000000000   -0.000368209555745   -0.000012670643628   -0.000016755424440
35    5.400000000000000    2.700000000000000    2.700000000000000    0.000043774605729    0.000032671436202    0.000056598568335
41    6.750000000000000    1.350000000000000    1.350000000000000   -0.001241768361069    0.000204608397326    0.000222994800424
49    8.100000000000000    0.000000000000000    2.700000000000000    0.003779494203627   -0.002321838866919   -0.003773123025894
51    8.100000000000000    2.700000000000000    0.000000000000000    0.003804155159742   -0.003788579721004   -0.002352280542254
5    0.000000000000000    5.400000000000000    0.000000000000000    0.000173258857103    0.000013286364265   -0.000040840532165
13    1.350000000000000    6.750000000000000    1.350000000000000    0.000747366575524    0.000191258324776   -0.000850505311973
21    2.700000000000000    5.400000000000000    2.700000000000000   -0.000063941348344   -0.000005767942639   -0.000015910714865
27    4.050000000000000    4.050000000000000    1.350000000000000   -0.000484451011289   -0.000651451118756   -0.000390901928768
37    5.400000000000000    5.400000000000000    0.000000000000000    0.000284940440906    0.000012468779460   -0.000037987600081
45    6.750000000000000    6.750000000000000    1.350000000000000   -0.000466306402814   -0.000665833009407    0.000421313015977
53    8.100000000000000    5.400000000000000    2.700000000000000   -0.000091920053819   -0.000056760931329   -0.000005154870450
59    9.449999999999999    4.050000000000000    1.350000000000000    0.000739538692869    0.000248409778578    0.000876999460161
7    0.000000000000000    8.100000000000000    2.700000000000000   -0.002314273733646    0.002317967358977   -0.002302752807736
23    2.700000000000000    8.100000000000000    0.000000000000000    0.003904134035110   -0.003892942797393    0.002320292638615
31    4.050000000000000    9.449999999999999    1.350000000000000   -0.001209897920489    0.000242444104515   -0.000210341648199
39    5.400000000000000    8.100000000000000    2.700000000000000    0.000017359496269    0.000034994794987   -0.000021627289243
55    8.100000000000000    8.100000000000000    0.000000000000000    0.003813667222857    0.003781818784773    0.002277517691255
63    9.449999999999999    9.449999999999999    1.350000000000000    0.017446968704462    0.017068101093173   -0.017088741064072
2    0.000000000000000    0.000000000000000    5.400000000000000    0.000180995848496   -0.000029759685276    0.000005906680599
10    1.350000000000000    1.350000000000000    6.750000000000000    0.000755792018026   -0.000863425317220    0.000227903161431
20    2.700000000000000    2.700000000000000    5.400000000000000   -0.000030607305234   -0.000015757977962   -0.000030613569834
25    4.050000000000000    1.350000000000000    4.050000000000000   -0.000489715836011   -0.000381579360692   -0.000636682845652
34    5.400000000000000    0.000000000000000    5.400000000000000    0.000261687062448   -0.000006935297279    0.000024091219530
42    6.750000000000000    1.350000000000000    6.750000000000000   -0.000480851333123    0.000384129030863   -0.000617448065896
52    8.100000000000000    2.700000000000000    5.400000000000000   -0.000081234997197    0.000021136365831   -0.000018874652596
57    9.449999999999999    1.350000000000000    4.050000000000000    0.000771815422922    0.000859843799844    0.000211010832572
6    0.000000000000000    5.400000000000000    5.400000000000000   -0.000166788042407   -0.000009939074516   -0.000001545995474
11    1.350000000000000    4.050000000000000    4.050000000000000   -0.000331405375618   -0.000373998016585   -0.000359958707122
14    1.350000000000000    6.750000000000000    6.750000000000000   -0.000331865623593    0.000398273143219    0.000409360887716
28    4.050000000000000    4.050000000000000    6.750000000000000    0.000034925906220    0.000051724986406   -0.000055334065109
29    4.050000000000000    6.750000000000000    4.050000000000000    0.000057442259276   -0.000052630930441    0.000068461900810
38    5.400000000000000    5.400000000000000    5.400000000000000   -0.000005939975381    0.000022811815143    0.000006867572665
43    6.750000000000000    4.050000000000000    4.050000000000000    0.000025692861527   -0.000022547115805   -0.000051957496908
46    6.750000000000000    6.750000000000000    6.750000000000000    0.000035920529626    0.000062078383053    0.000053733470850
60    9.449999999999999    4.050000000000000    6.750000000000000   -0.000306650268612    0.000417170202127   -0.000372360198526
61    9.449999999999999    6.750000000000000    4.050000000000000   -0.000335736665875   -0.000402411998948    0.000447406957392
15    1.350000000000000    9.449999999999999    4.050000000000000    0.000757023750339    0.000860251369886   -0.000195768894628
24    2.700000000000000    8.100000000000000    5.400000000000000   -0.000046042725444    0.000046904606279    0.000034724624129
32    4.050000000000000    9.449999999999999    6.750000000000000   -0.000484812044306    0.000384593207855    0.000663790153340
47    6.750000000000000    9.449999999999999    4.050000000000000   -0.000470712606329   -0.000411647284636    0.000649478170089
56    8.100000000000000    8.100000000000000    5.400000000000000   -0.000067998073064   -0.000021355313947    0.000068079833000
64    9.449999999999999    9.449999999999999    6.750000000000000    0.000740786606912   -0.000877234269865   -0.000216522370465
4    0.000000000000000    2.700000000000000    8.100000000000000   -0.002376834861934   -0.002318683080375    0.002320606727153
18    2.700000000000000    0.000000000000000    8.100000000000000    0.003918671514839    0.002349024638534   -0.003877745009959
26    4.050000000000000    1.350000000000000    9.449999999999999   -0.001215544412844   -0.000231367070228    0.000181526702363
36    5.400000000000000    2.700000000000000    8.100000000000000    0.000029999944672   -0.000053548719734    0.000058171281125
50    8.100000000000000    0.000000000000000    8.100000000000000    0.003791754133999    0.002303814515471    0.003791587427258
58    9.449999999999999    1.350000000000000    9.449999999999999    0.017450314015150   -0.017054647207260    0.017040887847543
12    1.350000000000000    4.050000000000000    9.449999999999999    0.000746784440707   -0.000179064052645    0.000836455612443
22    2.700000000000000    5.400000000000000    8.100000000000000   -0.000048916786909    0.000023584681912    0.000041204359150
30    4.050000000000000    6.750000000000000    9.449999999999999   -0.000477426918224    0.000670841312967    0.000355500000296
44    6.750000000000000    4.050000000000000    9.449999999999999   -0.000478502071928    0.000653475406580   -0.000425610516686
54    8.100000000000000    5.400000000000000    8.100000000000000   -0.000072392023867    0.000053449533880   -0.000012647127733
62    9.449999999999999    6.750000000000000    9.449999999999999    0.000759939313866   -0.000231514801271   -0.000871273630764
8    0.000000000000000    8.100000000000000    8.100000000000000   -0.002413157839328   -0.002351929200813   -0.002354723168537
16    1.350000000000000    9.449999999999999    9.449999999999999    0.017435813322663   -0.017327830195427   -0.017348617315292
40    5.400000000000000    8.100000000000000    8.100000000000000    0.000022147229174   -0.000059111043811   -0.000048206187785
48    6.750000000000000    9.449999999999999    9.449999999999999   -0.001227523200214   -0.000199230940780   -0.000244344206294
