ITEM: TIMESTEP
0
ITEM: NUMBER OF ATOMS
64
ITEM: BOX BOUNDS xy xz yz pp pp pp
0.0000000000000000e+00 1.0800000000000001e+01 0.0000000000000000e+00
0.0000000000000000e+00 1.0800000000000001e+01 0.0000000000000000e+00
0.0000000000000000e+00 1.0800000000000001e+01 0.0000000000000000e+00
ITEM: ATOMS id xu yu zu fx fy fz
1    0.040000000000000    0.000000000000000    0.000000000000000   -0.426071822643280   -0.080333828926086   -0.080364778637886
3    0.000000000000000    2.700000000000000    2.700000000000000   -0.080811291933060    0.082383081316948    0.082395166158676
9    1.310000000000000    1.350000000000000    1.350000000000000    0.426086783409119    0.080304369330406    0.080327615141869
17    2.700000000000000    0.000000000000000    2.700000000000000   -0.054023411124945    0.057611264288425   -0.051075205206871
19    2.700000000000000    2.700000000000000    0.000000000000000   -0.054025694727898   -0.051081638783216    0.057613734155893
33    5.400000000000000    0.000000000000000    0.000000000000000    0.003699852153659   -0.000963925383985   -0.000966609455645
35    5.400000000000000    2.700000000000000    2.700000000000000    0.005362346768379    0.001124451868236    0.001148283365183
41    6.750000000000000    1.350000000000000    1.350000000000000   -0.003704504808411    0.000935827265494    0.000954044517130
49    8.100000000000000    0.000000000000000    2.700000000000000    0.019252892583609   -0.008210886269808   -0.015285675413907
51    8.100000000000000    2.700000000000000    0.000000000000000    0.019277522340417   -0.015301574952900   -0.008242769166827
5    0.000000000000000    5.400000000000000    0.000000000000000   -0.002485229400918   -0.000533324317075    0.003381066024303
13    1.350000000000000    6.750000000000000    1.350000000000000    0.002478047972545    0.000537116371561   -0.003410482313484
21    2.700000000000000    5.400000000000000    2.700000000000000   -0.003202714025974    0.001082865637727    0.003492462448776
27    4.050000000000000    4.050000000000000    1.350000000000000   -0.016531851142645   -0.017065988853574   -0.010613965801895
37    5.400000000000000    5.400000000000000    0.000000000000000    0.002923211315647    0.002589110052213   -0.001655781990848
45    6.750000000000000    6.750000000000000    1.350000000000000   -0.002875656122342   -0.002601171378046    0.001639699330553
53    8.100000000000000    5.400000000000000    2.700000000000000    0.001620329334401   -0.002792606828734   -0.001562577788718
59    9.449999999999999    4.050000000000000    1.350000000000000   -0.013358058407903    0.017518673092127   -0.006242419593036
7    0.000000000000000    8.100000000000000    2.700000000000000   -0.012283307500184    0.009505921974778   -0.012363124638796
23    2.700000000000000    8.100000000000000    0.000000000000000    0.013346469029784   -0.017501607537270    0.006209947634488
31    4.050000000000000    9.449999999999999    1.350000000000000   -0.019277531653643    0.015328133478761    0.008213708177209
39    5.400000000000000    8.100000000000000    2.700000000000000    0.001951533835381   -0.002376487245783    0.001430426491424
55    8.100000000000000    8.100000000000000    0.000000000000000    0.016529044136405    0.017049333080649    0.010574197396636
63    9.449999999999999    9.449999999999999    1.350000000000000    0.054032802581787    0.051086992025375   -0.057665146887302
2    0.000000000000000    0.000000000000000    5.400000000000000   -0.002477195113897    0.003393307793885   -0.000540868379176
10    1.350000000000000    1.350000000000000    6.750000000000000    0.002486426848918   -0.003424123860896    0.000573756929953
20    2.700000000000000    2.700000000000000    5.400000000000000   -0.003169134026393    0.003493389114738    0.001058067893609
25    4.050000000000000    1.350000000000000    4.050000000000000   -0.016536301001906   -0.010604506358504   -0.017050661146641
34    5.400000000000000    0.000000000000000    5.400000000000000    0.002899731043726   -0.001624360796995    0.002600537613034
42    6.750000000000000    1.350000000000000    6.750000000000000   -0.002890165429562    0.001602057600394   -0.002552392426878
52    8.100000000000000    2.700000000000000    5.400000000000000    0.001631943974644   -0.001536780968308   -0.002755096880719
57    9.449999999999999    1.350000000000000    4.050000000000000   -0.013325992040336   -0.006259609945118    0.017481308430433
6    0.000000000000000    5.400000000000000    5.400000000000000    0.000697028532159   -0.001589418388903   -0.001580973155797
11    1.350000000000000    4.050000000000000    4.050000000000000    0.008625617250800    0.008294947445393    0.008309237658978
14    1.350000000000000    6.750000000000000    6.750000000000000   -0.000741788535379    0.001582674682140    0.001593752298504
28    4.050000000000000    4.050000000000000    6.750000000000000    0.000380765850423    0.000243860064074   -0.000435822090367
29    4.050000000000000    6.750000000000000    4.050000000000000    0.000403819693020   -0.000433044566307    0.000260630622506
38    5.400000000000000    5.400000000000000    5.400000000000000   -0.000215752981603   -0.000216701067984   -0.000232455320656
43    6.750000000000000    4.050000000000000    4.050000000000000   -0.000000190397259   -0.000020133535145   -0.000049946247600
46    6.750000000000000    6.750000000000000    6.750000000000000    0.000226088101044    0.000243836955633    0.000235610117670
60    9.449999999999999    4.050000000000000    6.750000000000000   -0.001062084455043    0.001613067113794   -0.001766903325915
61    9.449999999999999    6.750000000000000    4.050000000000000   -0.001090743113309   -0.001796903903596    0.001642535207793
15    1.350000000000000    9.449999999999999    4.050000000000000    0.012320348992944    0.012374116107821   -0.009499319829047
24    2.700000000000000    8.100000000000000    5.400000000000000    0.001099812798202   -0.001559101045132    0.001783819519915
32    4.050000000000000    9.449999999999999    6.750000000000000   -0.001659221947193    0.001535910880193    0.002812042832375
47    6.750000000000000    9.449999999999999    4.050000000000000   -0.001951372250915   -0.001414579688571    0.002369633875787
56    8.100000000000000    8.100000000000000    5.400000000000000   -0.000383024715120   -0.000259996944806    0.000454270688351
64    9.449999999999999    9.449999999999999    6.750000000000000    0.003191662253812   -0.003511024173349   -0.001027537859045
4    0.000000000000000    2.700000000000000    8.100000000000000   -0.012344208545983   -0.012377437204123    0.009506815113127
18    2.700000000000000    0.000000000000000    8.100000000000000    0.013360649347305    0.006238725036383   -0.017485508695245
26    4.050000000000000    1.350000000000000    9.449999999999999   -0.019283115863800    0.008192251436412    0.015265230089426
36    5.400000000000000    2.700000000000000    8.100000000000000    0.001963828690350    0.001398543827236   -0.002352929208428
50    8.100000000000000    0.000000000000000    8.100000000000000    0.016506038606167    0.010600319132209    0.017058063298464
58    9.449999999999999    1.350000000000000    9.449999999999999    0.054034400731325   -0.057631734758615    0.051063712686300
12    1.350000000000000    4.050000000000000    9.449999999999999    0.012310363352299   -0.009481588378549    0.012350998818874
22    2.700000000000000    5.400000000000000    8.100000000000000    0.001097318716347    0.001772345043719   -0.001564677571878
30    4.050000000000000    6.750000000000000    9.449999999999999   -0.001651837141253    0.002818938810378    0.001506707514636
44    6.750000000000000    4.050000000000000    9.449999999999999   -0.001958791865036    0.002373227849603   -0.001427840907127
54    8.100000000000000    5.400000000000000    8.100000000000000   -0.000387294305256    0.000439408235252   -0.000251674413448
62    9.449999999999999    6.750000000000000    9.449999999999999    0.003211190458387   -0.001042388146743   -0.003504613880068
8    0.000000000000000    8.100000000000000    8.100000000000000   -0.008652325719595   -0.008257064968348   -0.008259599097073
16    1.350000000000000    9.449999999999999    9.449999999999999    0.080784603953362   -0.082389146089554   -0.082410559058189
40    5.400000000000000    8.100000000000000    8.100000000000000   -0.000016596924979    0.000044425018132    0.000055510550737
48    6.750000000000000    9.449999999999999    9.449999999999999   -0.005344192031771   -0.001119885360822   -0.001164681976661
