ITEM: TIMESTEP
0
ITEM: NUMBER OF ATOMS
64
ITEM: BOX BOUNDS xy xz yz pp pp pp
0.0000000000000000e+00 1.0800000000000001e+01 0.0000000000000000e+00
0.0000000000000000e+00 1.0800000000000001e+01 0.0000000000000000e+00
0.0000000000000000e+00 1.0800000000000001e+01 0.0000000000000000e+00
ITEM: ATOMS id xu yu zu fx fy fz
1    0.040000000000000    0.000000000000000    0.000000000000000   -0.341614663600922    0.009953903034329    0.009927989915013
9    1.350000000000000    1.350000000000000    1.350000000000000   -0.001406789291650    0.138819783926010    0.138805568218231
17    2.700000000000000    0.000000000000000    2.700000000000000    0.001546362764202    0.004844779148698    0.007178658619523
19    2.700000000000000    2.700000000000000    0.000000000000000    0.001539588673040    0.007149182725698    0.004799570888281
33    5.400000000000000    0.000000000000000    0.000000000000000   -0.001560006756335    0.000189187005162    0.000173931941390
35    5.400000000000000    2.700000000000000    2.700000000000000    0.001680041896179    0.000168094440596    0.000228056800552
41    6.750000000000000    1.350000000000000    1.350000000000000   -0.000340373866493    0.001734942430630    0.001762392232195
3   -0.039999999999999    2.700000000000000    2.700000000000000    0.342271983623505    0.009090284816921    0.009121833369136
49    8.100000000000000    0.000000000000000    2.700000000000000   -0.001569213462062   -0.025327675044537   -0.024276614189148
51    8.100000000000000    2.700000000000000    0.000000000000000   -0.001554769347422   -0.024259120225906   -0.025365930050611
5    0.000000000000000    5.400000000000000    0.000000000000000    0.010522718541324    0.009809330105782   -0.009833020158112
13    1.350000000000000    6.750000000000000    1.350000000000000    0.000153061177116    0.001722714514472   -0.006936491932720
21    2.700000000000000    5.400000000000000    2.700000000000000   -0.014934243634343   -0.014683846384287    0.009048314765096
27    4.050000000000000    4.050000000000000    1.350000000000000    0.003124982584268   -0.001657043234445   -0.002499407622963
37    5.400000000000000    5.400000000000000    0.000000000000000    0.000862565007992    0.000204513315111   -0.000233545579249
45    6.750000000000000    6.750000000000000    1.350000000000000   -0.000014941528207   -0.005163395311683    0.003221054328606
53    8.100000000000000    5.400000000000000    2.700000000000000   -0.016513546928763    0.016008837148547    0.009741418063641
59    9.449999999999999    4.050000000000000    1.350000000000000   -0.067302688956261    0.072707146406174   -0.068060122430325
7    0.000000000000000    8.100000000000000    2.700000000000000   -0.009864943102002    0.008995217271149   -0.008990939706564
23    2.700000000000000    8.100000000000000    0.000000000000000    0.016503427177668   -0.016505777835846    0.009644698351622
31    4.050000000000000    9.449999999999999    1.350000000000000   -0.002824878552929   -0.001736968290061   -0.002437133342028
39    5.400000000000000    8.100000000000000    2.700000000000000   -0.000949511944782    0.000202172639547   -0.000171390245669
55    8.100000000000000    8.100000000000000    0.000000000000000    0.014953524805605    0.014405894093215    0.009064069017768
63    9.449999999999999    9.449999999999999    1.350000000000000    0.067487508058548    0.068090558052063   -0.064058855175972
2    0.000000000000000    0.000000000000000    5.400000000000000    0.010508140549064   -0.009819851256907    0.009794370271266
10    1.350000000000000    1.350000000000000    6.750000000000000    0.000145825324580   -0.006938437931240    0.001771682291292
20    2.700000000000000    2.700000000000000    5.400000000000000   -0.014900395646691    0.009050067514181   -0.014688372612000
25    4.050000000000000    1.350000000000000    4.050000000000000    0.003178117331117   -0.002498681191355   -0.001656952896155
34    5.400000000000000    0.000000000000000    5.400000000000000    0.000824748654850   -0.000183772441233    0.000200446695089
42    6.750000000000000    1.350000000000000    6.750000000000000   -0.000028534717785    0.003181711072102   -0.005114592611790
52    8.100000000000000    2.700000000000000    5.400000000000000   -0.016506696119905    0.009769208729267    0.016050262376666
57    9.449999999999999    1.350000000000000    4.050000000000000   -0.067254722118378   -0.068078547716141    0.072670333087444
6    0.000000000000000    5.400000000000000    5.400000000000000    0.008668732829392   -0.009011682122946   -0.009000045247376
11    1.350000000000000    4.050000000000000    4.050000000000000   -0.071978032588959   -0.069089777767658   -0.069114126265049
14    1.350000000000000    6.750000000000000    6.750000000000000    0.000082669779658    0.003207730129361    0.003219684353098
28    4.050000000000000    4.050000000000000    6.750000000000000    0.002044704277068    0.001830415101722    0.002377777593210
29    4.050000000000000    6.750000000000000    4.050000000000000    0.002059598220512    0.002371180104092    0.001837765565142
38    5.400000000000000    5.400000000000000    5.400000000000000   -0.000098199583590   -0.000189105048776   -0.000199610367417
43    6.750000000000000    4.050000000000000    4.050000000000000    0.004867466166615   -0.001037058187649   -0.001066175173037
46    6.750000000000000    6.750000000000000    6.750000000000000    0.000037485267967    0.000459739705548    0.000452733132988
60    9.449999999999999    4.050000000000000    6.750000000000000   -0.004443705547601   -0.001787174842320   -0.002228805329651
61    9.449999999999999    6.750000000000000    4.050000000000000   -0.004481839016080   -0.002253824379295   -0.001762784318998
15    1.350000000000000    9.449999999999999    4.050000000000000    0.000170924380654    0.002344130072743    0.002874362748116
24    2.700000000000000    8.100000000000000    5.400000000000000    0.000021059997380    0.000305977562675    0.000177479174454
32    4.050000000000000    9.449999999999999    6.750000000000000   -0.002057365374640    0.001805672887713    0.002329918090254
47    6.750000000000000    9.449999999999999    4.050000000000000   -0.000032736832509    0.000909344176762    0.001024121185765
56    8.100000000000000    8.100000000000000    5.400000000000000   -0.000003448105417    0.000098994409200    0.000222429254791
64    9.449999999999999    9.449999999999999    6.750000000000000    0.004197399597615   -0.001948806690052   -0.002660271245986
4    0.000000000000000    2.700000000000000    8.100000000000000   -0.009903219528496   -0.008987504988909    0.009002667851746
18    2.700000000000000    0.000000000000000    8.100000000000000    0.016528807580471    0.009669596329331   -0.016477689146996
26    4.050000000000000    1.350000000000000    9.449999999999999   -0.002856947015971   -0.002425946760923   -0.001763865235262
36    5.400000000000000    2.700000000000000    8.100000000000000   -0.000943205319345   -0.000212891842239    0.000218639906961
50    8.100000000000000    0.000000000000000    8.100000000000000    0.014925676397979    0.009088093414903    0.014410966075957
58    9.449999999999999    1.350000000000000    9.449999999999999    0.067501574754715   -0.064029939472675    0.068068116903305
12    1.350000000000000    4.050000000000000    9.449999999999999    0.000169920269400    0.002850334625691    0.002341888379306
22    2.700000000000000    5.400000000000000    8.100000000000000    0.000022754073143    0.000172805448528    0.000309112685500
30    4.050000000000000    6.750000000000000    9.449999999999999   -0.002055010758340    0.002325880806893    0.001779116340913
44    6.750000000000000    4.050000000000000    9.449999999999999   -0.000029737188015    0.001015213551000    0.000911018461920
54    8.100000000000000    5.400000000000000    8.100000000000000   -0.000010551448213    0.000203245755984    0.000109507236630
62    9.449999999999999    6.750000000000000    9.449999999999999    0.004211161285639   -0.002666686661541   -0.001949329162017
8    0.000000000000000    8.100000000000000    8.100000000000000   -0.009319240227342   -0.009780511260033   -0.009781654924154
16    1.350000000000000    9.449999999999999    9.449999999999999    0.071506664156914   -0.073167987167835   -0.073188595473766
40    5.400000000000000    8.100000000000000    8.100000000000000    0.000222247210331   -0.000193452462554   -0.000188060104847
48    6.750000000000000    9.449999999999999    9.449999999999999   -0.005187164060771   -0.001120427623391   -0.001167476177216
