ITEM: TIMESTEP
0
ITEM: NUMBER OF ATOMS
64
ITEM: BOX BOUNDS xy xz yz pp pp pp
0.0000000000000000e+00 1.0800000000000001e+01 0.0000000000000000e+00
0.0000000000000000e+00 1.0800000000000001e+01 0.0000000000000000e+00
0.0000000000000000e+00 1.0800000000000001e+01 0.0000000000000000e+00
ITEM: ATOMS id xu yu zu fx fy fz
1    0.040000000000000    0.000000000000000    0.000000000000000   -0.350961625576019   -0.000004562607501   -0.000033873191569
3    0.000000000000000    2.700000000000000    2.700000000000000   -0.019102834165096    0.000797333952505    0.018793720752001
9    1.350000000000000    1.350000000000000    1.350000000000000    0.073363631963730    0.068124435842037    0.072228297591209
17    2.700000000000000    0.000000000000000    2.700000000000000    0.032494582235813   -0.000041954655899    0.000020212726668
19    2.700000000000000    2.700000000000000    0.000000000000000    0.015997201204300    0.016242144629359   -0.009926890023053
33    5.400000000000000    0.000000000000000    0.000000000000000   -0.000508813187480   -0.000013695098460   -0.000017209909856
35    5.400000000000000    2.700000000000000    2.700000000000000    0.000216511893086   -0.000041437771870    0.000403539743274
41    6.750000000000000    1.350000000000000    1.350000000000000   -0.007015088107437    0.002515764441341   -0.001665206975304
49    8.100000000000000    0.000000000000000    2.700000000000000    0.029332291334867    0.000000680749281    0.000013852142729
51    8.100000000000000    2.700000000000000    0.000000000000000    0.014409799128771   -0.014518121257424   -0.009331424720585
5    0.000000000000000    5.400000000000000    0.000000000000000    0.000132678862428    0.000013306038454   -0.000040507467929
13    1.350000000000000    6.750000000000000    1.350000000000000    0.001853185356595    0.002156925154850   -0.001867893384770
21    2.700000000000000    5.400000000000000    2.700000000000000   -0.000519627239555    0.000040741229896   -0.000006954418495
27    4.050000000000000    4.050000000000000    1.350000000000000   -0.001776314689778   -0.002340769860893   -0.001791409333237
37    5.400000000000000    5.400000000000000    0.000000000000000    0.000958275632001    0.000011901720427   -0.000037579739001
45    6.750000000000000    6.750000000000000    1.350000000000000   -0.001750706695020   -0.002376635791734    0.001879691146314
53    8.100000000000000    5.400000000000000    2.700000000000000   -0.000551464734599   -0.000005509228686   -0.000014181481674
59    9.449999999999999    4.050000000000000    1.350000000000000    0.001605910598300    0.002786142751575    0.001869672443718
7    0.000000000000000    8.100000000000000    2.700000000000000   -0.019024675711989   -0.000803176895715   -0.018772702664137
23    2.700000000000000    8.100000000000000    0.000000000000000    0.015984773635864   -0.016229297965765    0.009841931983829
31    4.050000000000000    9.449999999999999    1.350000000000000   -0.006608996074647    0.002437975024804    0.001734383404255
39    5.400000000000000    8.100000000000000    2.700000000000000    0.000198285153601    0.000011101306882   -0.000366134336218
55    8.100000000000000    8.100000000000000    0.000000000000000    0.014417862519622    0.014511828310788    0.009254382923245
63    9.449999999999999    9.449999999999999    1.350000000000000    0.073579907417297    0.063986256718636   -0.068607620894909
2    0.040000000000000    0.000000000000000    5.400000000000000   -0.350955009460449   -0.000027134490665    0.000000489875674
10    1.350000000000000    1.350000000000000    6.750000000000000    0.073361001908779    0.068150654435158    0.072256207466125
20    2.700000000000000    2.700000000000000    5.400000000000000    0.016016025096178    0.016219770535827   -0.009867077693343
25    4.050000000000000    1.350000000000000    4.050000000000000   -0.006623228080571   -0.002392663853243   -0.001729384995997
34    5.400000000000000    0.000000000000000    5.400000000000000   -0.000500512542203   -0.000006942253094    0.000023715314455
42    6.750000000000000    1.350000000000000    6.750000000000000   -0.007010336965322    0.002515392843634   -0.001644683070481
52    8.100000000000000    2.700000000000000    5.400000000000000    0.014395006932318   -0.014504805207253   -0.009269834496081
57    9.449999999999999    1.350000000000000    4.050000000000000    0.073603183031082   -0.063997857272625    0.068573907017708
6    0.000000000000000    5.400000000000000    5.400000000000000    0.000091588968644   -0.000010147690773   -0.000001338310540
11    1.350000000000000    4.050000000000000    4.050000000000000    0.001856889692135   -0.002143654506654    0.001915044966154
14    1.350000000000000    6.750000000000000    6.750000000000000    0.001856906455941    0.002169176004827   -0.001866181148216
28    4.050000000000000    4.050000000000000    6.750000000000000   -0.001764789340086   -0.002333280164748   -0.001795725082047
29    4.050000000000000    6.750000000000000    4.050000000000000   -0.001742592081428    0.002333238255233    0.001809406327084
38    5.400000000000000    5.400000000000000    5.400000000000000    0.000931113958359    0.000022830441594    0.000006990507245
43    6.750000000000000    4.050000000000000    4.050000000000000   -0.001769742229953    0.002387421205640   -0.001851481269114
46    6.750000000000000    6.750000000000000    6.750000000000000   -0.001759829581715   -0.002348228357732    0.001853739027865
60    9.449999999999999    4.050000000000000    6.750000000000000    0.001637190580368    0.002785312477499    0.001887638936751
61    9.449999999999999    6.750000000000000    4.050000000000000    0.001608813647181   -0.002770135877654   -0.001813478418626
15    1.350000000000000    9.449999999999999    4.050000000000000    0.073360577225685   -0.068152591586113   -0.072220548987389
24    2.700000000000000    8.100000000000000    5.400000000000000    0.016000401228666   -0.016189618036151    0.009871874004602
32    4.050000000000000    9.449999999999999    6.750000000000000   -0.006618387531489    0.002395358169451    0.001756099401973
47    6.750000000000000    9.449999999999999    4.050000000000000   -0.006999591831118   -0.002542302478105    0.001677073421888
56    8.100000000000000    8.100000000000000    5.400000000000000    0.014404964633286    0.014502321369946    0.009315975010395
64    9.449999999999999    9.449999999999999    6.750000000000000    0.073571749031544    0.063978329300880   -0.068576440215111
4    0.000000000000000    2.700000000000000    8.100000000000000   -0.019084012135863    0.000802303664386    0.018787957727909
18    2.700000000000000    0.000000000000000    8.100000000000000    0.032493725419044   -0.000012287175196    0.000013111508451
26    4.050000000000000    1.350000000000000    9.449999999999999   -0.006614218000323   -0.002426222665235   -0.001763147884049
36    5.400000000000000    2.700000000000000    8.100000000000000    0.000210736645386   -0.000029761111364    0.000402473611757
50    8.100000000000000    0.000000000000000    8.100000000000000    0.029341299086809   -0.000018504069885    0.000006523914635
58    9.449999999999999    1.350000000000000    9.449999999999999    0.073580741882324   -0.063971914350986    0.068562939763069
12    1.350000000000000    4.050000000000000    9.449999999999999    0.001852482440881   -0.002144186757505    0.001854154979810
22    2.700000000000000    5.400000000000000    8.100000000000000   -0.000503960065544   -0.000023436314223    0.000031649135053
30    4.050000000000000    6.750000000000000    9.449999999999999   -0.001770325121470    0.002360965590924    0.001755766919814
44    6.750000000000000    4.050000000000000    9.449999999999999   -0.001762778963894    0.002363757230341   -0.001883344142698
54    8.100000000000000    5.400000000000000    8.100000000000000   -0.000531778496224    0.000002883358775   -0.000003343622666
62    9.449999999999999    6.750000000000000    9.449999999999999    0.001626207493246   -0.002768970560282   -0.001864711404778
8    0.000000000000000    8.100000000000000    8.100000000000000   -0.019084073603153   -0.000790092686657   -0.018773414194584
16    1.350000000000000    9.449999999999999    9.449999999999999    0.073374360799789   -0.068151041865349   -0.072248518466949
40    5.400000000000000    8.100000000000000    8.100000000000000    0.000196029606741    0.000015326775610   -0.000394382514060
48    6.750000000000000    9.449999999999999    9.449999999999999   -0.007000571116805   -0.002510652411729    0.001644122879952
