ITEM: TIMESTEP
0
ITEM: NUMBER OF ATOMS
64
ITEM: BOX BOUNDS xy xz yz pp pp pp
0.0000000000000000e+00 1.0800000000000001e+01 0.0000000000000000e+00
0.0000000000000000e+00 1.0800000000000001e+01 0.0000000000000000e+00
0.0000000000000000e+00 1.0800000000000001e+01 0.0000000000000000e+00
ITEM: ATOMS id xu yu zu fx fy fz
1    0.040000000000000    0.000000000000000    0.000000000000000   -0.432999730110168   -0.079289965331554   -0.083341270685196
3    0.000000000000000    2.700000000000000    2.700000000000000    0.057208560407162   -0.060207650065422   -0.057307511568069
9    1.350000000000000    1.310000000000000    1.350000000000000    0.079286441206932    0.432996362447739    0.083303473889828
17    2.700000000000000    0.000000000000000    2.700000000000000    0.089104697108269   -0.081042170524597    0.089107610285282
19    2.700000000000000    2.700000000000000    0.000000000000000   -0.050849277526140   -0.053728364408016    0.057333029806614
33    5.400000000000000    0.000000000000000    0.000000000000000   -0.002021679654717   -0.003151412121952    0.003409563563764
35    5.400000000000000    2.700000000000000    2.700000000000000    0.001366982702166   -0.002776588080451    0.003728056093678
41    6.750000000000000    1.350000000000000    1.350000000000000   -0.005207529291511    0.000276431848761    0.000950952584390
49    8.100000000000000    0.000000000000000    2.700000000000000    0.015187032520771   -0.012201374396682   -0.017945636063814
51    8.100000000000000    2.700000000000000    0.000000000000000    0.013449164107442   -0.017466736957431   -0.012614332139492
5    0.000000000000000    5.400000000000000    0.000000000000000   -0.000282825640170    0.005209677852690   -0.000987511477433
13    1.350000000000000    6.750000000000000    1.350000000000000    0.003122976282611    0.002018951810896   -0.003415130311623
21    2.700000000000000    5.400000000000000    2.700000000000000    0.000687438412569    0.005077811423689    0.000907062436454
27    4.050000000000000    4.050000000000000    1.350000000000000   -0.016452891752124   -0.017239367589355   -0.010639208368957
37    5.400000000000000    5.400000000000000    0.000000000000000    0.003596711670980    0.001919386791997   -0.001659733941779
45    6.750000000000000    6.750000000000000    1.350000000000000   -0.001898213638924   -0.003582129254937    0.001643630093895
53    8.100000000000000    5.400000000000000    2.700000000000000   -0.002861786168069    0.001674164319411    0.001640263828449
59    9.449999999999999    4.050000000000000    1.350000000000000    0.017451042309403   -0.013431204482913    0.012594247236848
7    0.000000000000000    8.100000000000000    2.700000000000000   -0.008351130411029    0.013684452511370   -0.009808870963752
23    2.700000000000000    8.100000000000000    0.000000000000000    0.015417421236634   -0.011570622213185    0.010536774992943
31    4.050000000000000    9.449999999999999    1.350000000000000    0.011569128371775   -0.015386912971735   -0.010576599277556
39    5.400000000000000    8.100000000000000    2.700000000000000   -0.002517407061532    0.002101515419781   -0.001761658699252
55    8.100000000000000    8.100000000000000    0.000000000000000    0.017235156148672    0.016437336802483    0.010600022971630
63    9.449999999999999    9.449999999999999    1.350000000000000    0.053731743246317    0.050851173698902   -0.057380840182304
2    0.000000000000000    0.000000000000000    5.400000000000000    0.004091729409993   -0.003165952395648   -0.000544312060811
10    1.350000000000000    1.350000000000000    6.750000000000000    0.003129440825433   -0.004076919052750    0.000577359111048
20    2.700000000000000    2.700000000000000    5.400000000000000    0.003304944373667   -0.002989865839481    0.001054476946592
25    4.050000000000000    1.350000000000000    4.050000000000000    0.007893912494183    0.008315183222294    0.007254855241627
34    5.400000000000000    0.000000000000000    5.400000000000000   -0.000587231654208    0.001248542452231   -0.001554577960633
42    6.750000000000000    1.350000000000000    6.750000000000000   -0.001911005703732    0.002133674919605   -0.002553326543421
52    8.100000000000000    2.700000000000000    5.400000000000000   -0.001907047233544    0.001392240636051    0.001441203756258
57    9.449999999999999    1.350000000000000    4.050000000000000    0.011952802538872    0.012720029801130   -0.007806906010956
6    0.000000000000000    5.400000000000000    5.400000000000000   -0.002182119525969    0.001895526424050    0.002577093429863
11    1.350000000000000    4.050000000000000    4.050000000000000   -0.010318174026906   -0.016200691461563   -0.016060361638665
14    1.350000000000000    6.750000000000000    6.750000000000000   -0.001267663203180    0.000604892498814    0.001592265092768
28    4.050000000000000    4.050000000000000    6.750000000000000    0.000158487848239    0.000468504091259   -0.000439043622464
29    4.050000000000000    6.750000000000000    4.050000000000000    0.000330846494762   -0.000364395848010    0.000413042696891
38    5.400000000000000    5.400000000000000    5.400000000000000   -0.000293303281069   -0.000137959606946   -0.000232027843595
43    6.750000000000000    4.050000000000000    4.050000000000000   -0.000073612463893    0.000055106851505   -0.000198223890038
46    6.750000000000000    6.750000000000000    6.750000000000000    0.000160842086188    0.000307991722366    0.000234928593272
60    9.449999999999999    4.050000000000000    6.750000000000000   -0.001361300819553    0.001907623722218   -0.001380192348734
61    9.449999999999999    6.750000000000000    4.050000000000000   -0.001141917542554   -0.001685642986558    0.001467250986025
15    1.350000000000000    9.449999999999999    4.050000000000000   -0.006629876792431   -0.012816607952118    0.015713233500719
24    2.700000000000000    8.100000000000000    5.400000000000000   -0.001816611737013    0.001975285122171   -0.002411194611341
32    4.050000000000000    9.449999999999999    6.750000000000000   -0.001948765129782    0.001823181402870    0.002424119506031
47    6.750000000000000    9.449999999999999    4.050000000000000   -0.002063814317808   -0.001371797523461    0.002552786841989
56    8.100000000000000    8.100000000000000    5.400000000000000   -0.000475861685118   -0.000169169652509    0.000457879679743
64    9.449999999999999    9.449999999999999    6.750000000000000    0.002969874534756   -0.003280391450971   -0.001024164725095
4    0.000000000000000    2.700000000000000    8.100000000000000   -0.012743947096169   -0.011934475973248    0.007788884453475
18    2.700000000000000    0.000000000000000    8.100000000000000    0.012829889543355    0.006609739270061   -0.015692867338657
26    4.050000000000000    1.350000000000000    9.449999999999999   -0.013688581064343    0.008376695215702    0.009789584204555
36    5.400000000000000    2.700000000000000    8.100000000000000    0.001692539895885    0.001127958414145   -0.001412946614437
50    8.100000000000000    0.000000000000000    8.100000000000000    0.016209106892347    0.010286165401340    0.016100496053696
58    9.449999999999999    1.350000000000000    9.449999999999999    0.060194827616215   -0.057220272719860    0.057279914617538
12    1.350000000000000    4.050000000000000    9.449999999999999    0.012186050415039   -0.015188084915280    0.017931958660483
22    2.700000000000000    5.400000000000000    8.100000000000000    0.001376094296575    0.002044887980446   -0.002512167673558
30    4.050000000000000    6.750000000000000    9.449999999999999   -0.002121109282598    0.002544998191297    0.001747924601659
44    6.750000000000000    4.050000000000000    9.449999999999999   -0.001683523063548    0.002846555318683   -0.001680466812104
54    8.100000000000000    5.400000000000000    8.100000000000000   -0.000026624271413    0.000065955129685    0.000199937290745
62    9.449999999999999    6.750000000000000    9.449999999999999    0.002767997561023   -0.001353380619548   -0.003724608104676
8    0.000000000000000    8.100000000000000    8.100000000000000   -0.008314628154039   -0.007894273847342   -0.007239214144647
16    1.350000000000000    9.449999999999999    9.449999999999999    0.081007689237595   -0.089089803397655   -0.089108981192112
40    5.400000000000000    8.100000000000000    8.100000000000000    0.000361394486390   -0.000317936763167   -0.000400703400373
48    6.750000000000000    9.449999999999999    9.449999999999999   -0.005033822730184   -0.000665854429826   -0.000939227407798
