ITEM: TIMESTEP
0
ITEM: NUMBER OF ATOMS
64
ITEM: BOX BOUNDS xy xz yz pp pp pp
0.0000000000000000e+00 1.0800000000000001e+01 0.0000000000000000e+00
0.0000000000000000e+00 1.0800000000000001e+01 0.0000000000000000e+00
0.0000000000000000e+00 1.0800000000000001e+01 0.0000000000000000e+00
ITEM: ATOMS id xu yu zu fx fy fz
1    0.040000000000000    0.000000000000000    0.000000000000000   -0.362166523933411   -0.017080206423998   -0.016983134672046
3    0.000000000000000    2.660000000000000    2.700000000000000   -0.010710632428527    0.362110316753387    0.010644917376339
9    1.350000000000000    1.350000000000000    1.350000000000000    0.142939299345016    0.001596653950401   -0.000008170696674
17    2.700000000000000    0.000000000000000    2.700000000000000    0.032592285424471   -0.026075676083565    0.026077592745423
19    2.700000000000000    2.700000000000000    0.000000000000000    0.026118692010641    0.026185188442469   -0.019631050527096
33    5.400000000000000    0.000000000000000    0.000000000000000   -0.001657282933593    0.000244507566094    0.000010531395674
35    5.400000000000000    2.700000000000000    2.700000000000000    0.000180369039299   -0.000483862619149    0.000196785666049
41    6.750000000000000    1.350000000000000    1.350000000000000   -0.004465883597732   -0.002219280693680    0.004350396804512
49    8.100000000000000    0.000000000000000    2.700000000000000   -0.001605644938536   -0.025320068001747   -0.024270124733448
51    8.100000000000000    2.700000000000000    0.000000000000000    0.023676825687289   -0.005327663384378   -0.000115092116175
5    0.000000000000000    5.400000000000000    0.000000000000000   -0.008404627442360   -0.014653985388577    0.014504416845739
13    1.350000000000000    6.750000000000000    1.350000000000000    0.004019190091640    0.005702493712306   -0.004345151595771
21    2.700000000000000    5.400000000000000    2.700000000000000   -0.014812817797065   -0.014786854386330    0.009040533564985
27    4.050000000000000    4.050000000000000    1.350000000000000   -0.000775835942477   -0.005513580050319   -0.005077006295323
37    5.400000000000000    5.400000000000000    0.000000000000000    0.000798037275672    0.000279649044387   -0.000080291880295
45    6.750000000000000    6.750000000000000    1.350000000000000   -0.004502595867962   -0.000694328569807    0.000020622595912
53    8.100000000000000    5.400000000000000    2.700000000000000    0.014252695254982   -0.014909100718796   -0.009041809476912
59    9.449999999999999    4.050000000000000    1.350000000000000    0.070467904210091   -0.069588601589203    0.071031019091606
7    0.000000000000000    8.100000000000000    2.700000000000000   -0.009196476079524    0.010502892546356   -0.008988926187158
23    2.700000000000000    8.100000000000000    0.000000000000000    0.016441281884909   -0.016431594267488    0.009492391720414
31    4.050000000000000    9.449999999999999    1.350000000000000   -0.007277476601303    0.002737632952631    0.000760771567002
39    5.400000000000000    8.100000000000000    2.700000000000000    0.000034652999602   -0.000799946603365   -0.000176064088009
55    8.100000000000000    8.100000000000000    0.000000000000000    0.014900159090757    0.014512293040752    0.009241238236427
63    9.449999999999999    9.449999999999999    1.350000000000000    0.071673735976219    0.072334051132202   -0.066853642463684
2    0.000000000000000    0.000000000000000    5.400000000000000    0.010400056838989   -0.016265330836177    0.016273021697998
10    1.350000000000000    1.350000000000000    6.750000000000000   -0.000328303081915   -0.006565778516233    0.000035635137465
20    2.700000000000000    2.700000000000000    5.400000000000000   -0.009222567081451    0.009195634163916   -0.009132866747677
25    4.050000000000000    1.350000000000000    4.050000000000000   -0.002519669709727   -0.004689154680818   -0.005979000125080
34    5.400000000000000    0.000000000000000    5.400000000000000    0.001159395556897    0.000249060918577   -0.000001796288416
42    6.750000000000000    1.350000000000000    6.750000000000000   -0.000364632520359    0.002856590086594   -0.004125104751438
52    8.100000000000000    2.700000000000000    5.400000000000000   -0.010076505132020    0.009895050898194    0.009591976180673
57    9.449999999999999    1.350000000000000    4.050000000000000   -0.068606480956078   -0.066753238439560    0.072696134448051
6    0.000000000000000    5.400000000000000    5.400000000000000    0.008506665006280   -0.014679579064250   -0.014552692882717
11    1.350000000000000    4.050000000000000    4.050000000000000   -0.068813323974609   -0.072263866662979   -0.069068863987923
14    1.350000000000000    6.750000000000000    6.750000000000000    0.000350272166543    0.003482038155198    0.004165692254901
28    4.050000000000000    4.050000000000000    6.750000000000000    0.001763134379871    0.001548448693939    0.001430857460946
29    4.050000000000000    6.750000000000000    4.050000000000000    0.002734943758696    0.001709915464744    0.001843766542152
38    5.400000000000000    5.400000000000000    5.400000000000000    0.000178770162165    0.000287052243948    0.000045993365347
43    6.750000000000000    4.050000000000000    4.050000000000000   -0.000963503902312   -0.003170330077410    0.003268664237112
46    6.750000000000000    6.750000000000000    6.750000000000000    0.000399933313020    0.000085174018750   -0.000003644585377
60    9.449999999999999    4.050000000000000    6.750000000000000   -0.004822558723390   -0.001306357793510   -0.000500125053804
61    9.449999999999999    6.750000000000000    4.050000000000000   -0.002261253539473    0.003438014071435    0.002602115739137
15    1.350000000000000    9.449999999999999    4.050000000000000    0.002288643503562    0.008156890980899   -0.001437675673515
24    2.700000000000000    8.100000000000000    5.400000000000000   -0.000445876270533    0.000024237670004   -0.000058632023865
32    4.050000000000000    9.449999999999999    6.750000000000000   -0.001687818439677    0.001452416763641    0.002788538578898
47    6.750000000000000    9.449999999999999    4.050000000000000    0.000629214220680    0.000258848536760    0.001017462112941
56    8.100000000000000    8.100000000000000    5.400000000000000   -0.000455270230304   -0.000215887586819    0.000443643104518
64    9.449999999999999    9.449999999999999    6.750000000000000    0.004538509063423   -0.001619975897484   -0.003638415830210
4    0.000000000000000    2.700000000000000    8.100000000000000   -0.009249141439795   -0.009656552225351    0.008995374664664
18    2.700000000000000    0.000000000000000    8.100000000000000    0.016231942921877    0.009970069862902   -0.016100358217955
26    4.050000000000000    1.350000000000000    9.449999999999999   -0.006288473960012    0.000405967351981    0.002340869046748
36    5.400000000000000    2.700000000000000    8.100000000000000    0.000052868039347    0.000325757777318    0.000212387676584
50    8.100000000000000    0.000000000000000    8.100000000000000    0.014691499061882    0.009313028305769    0.014398707076907
58    9.449999999999999    1.350000000000000    9.449999999999999    0.074204578995705   -0.070674657821655    0.068142771720886
12    1.350000000000000    4.050000000000000    9.449999999999999    0.006601964589208   -0.003557951655239    0.002290097763762
22    2.700000000000000    5.400000000000000    8.100000000000000   -0.000201211310923    0.000402795500122    0.000293359655188
30    4.050000000000000    6.750000000000000    9.449999999999999   -0.002137998584658    0.002421116689220    0.001784621621482
44    6.750000000000000    4.050000000000000    9.449999999999999   -0.003565493505448    0.003938521258533   -0.003283916972578
54    8.100000000000000    5.400000000000000    8.100000000000000   -0.000310402421746    0.000500708643813   -0.000273800513241
62    9.449999999999999    6.750000000000000    9.449999999999999    0.001355959218927    0.000815129315015   -0.006097053177655
8    0.000000000000000    8.100000000000000    8.100000000000000   -0.009860098361969   -0.010776429437101   -0.009792452678084
16    1.350000000000000    9.449999999999999    9.449999999999999    0.068704895675182   -0.069714084267616   -0.069077923893929
40    5.400000000000000    8.100000000000000    8.100000000000000    0.000151963846292   -0.000132156535983   -0.000186566263437
48    6.750000000000000    9.449999999999999    9.449999999999999   -0.005283925216645   -0.001012062886730   -0.001151630887762
