ITEM: TIMESTEP
0
ITEM: NUMBER OF ATOMS
64
ITEM: BOX BOUNDS xy xz yz pp pp pp
0.0000000000000000e+00 1.0800000000000001e+01 0.0000000000000000e+00
0.0000000000000000e+00 1.0800000000000001e+01 0.0000000000000000e+00
0.0000000000000000e+00 1.0800000000000001e+01 0.0000000000000000e+00
ITEM: ATOMS id xu yu zu fx fy fz
3    0.000000000000000    2.740000000000000    2.700000000000000    0.008396301418543   -0.360005080699921   -0.008169287815690
9    1.350000000000000    1.350000000000000    1.350000000000000   -0.136782139539719    0.003392399521545    0.000005814858014
17    2.700000000000000    0.000000000000000    2.700000000000000   -0.029227811843157    0.023733358830214   -0.023612536489964
19    2.700000000000000    2.700000000000000    0.000000000000000   -0.023681346327066   -0.023793525993824    0.018008301034570
33    5.400000000000000    0.000000000000000    0.000000000000000    0.001735755708069   -0.000276074744761   -0.000070349313319
35    5.400000000000000    2.700000000000000    2.700000000000000   -0.000009479233995    0.000443880941020   -0.000183068681508
41    6.750000000000000    1.350000000000000    1.350000000000000    0.003646668745205    0.002129300963134   -0.004311537370086
1   -0.039999999999999    0.000000000000000    0.000000000000000    0.359902352094650    0.013881486840546    0.013842646963894
49    8.100000000000000    0.000000000000000    2.700000000000000   -0.001721564913169    0.024407627061009    0.025343148037791
51    8.100000000000000    2.700000000000000    0.000000000000000   -0.026049608364701    0.006437863223255   -0.000107364729047
5    0.000000000000000    5.400000000000000    0.000000000000000    0.009051878005266    0.016257263720036   -0.016325004398823
13    1.350000000000000    6.750000000000000    1.350000000000000   -0.003788830479607   -0.005782047752291    0.004340948071331
21    2.700000000000000    5.400000000000000    2.700000000000000    0.016535807400942    0.016524009406567   -0.009680964052677
27    4.050000000000000    4.050000000000000    1.350000000000000    0.001281524077058    0.005710059776902    0.005028116516769
37    5.400000000000000    5.400000000000000    0.000000000000000   -0.000784184492659   -0.000249088392593   -0.000004910805728
45    6.750000000000000    6.750000000000000    1.350000000000000    0.004444099962711    0.000636253156699    0.000023130327463
53    8.100000000000000    5.400000000000000    2.700000000000000   -0.016042215749621    0.016405157744884    0.009679947048426
59    9.449999999999999    4.050000000000000    1.350000000000000   -0.074720866978168    0.069575145840645   -0.075009681284428
7    0.000000000000000    8.100000000000000    2.700000000000000    0.009885282255709   -0.011323358863592    0.009788032621145
23    2.700000000000000    8.100000000000000    0.000000000000000   -0.014871234074235    0.014573212713003   -0.008879939094186
31    4.050000000000000    9.449999999999999    1.350000000000000    0.007656319532543   -0.002852576784790   -0.000706680584699
39    5.400000000000000    8.100000000000000    2.700000000000000   -0.000164533383213    0.000778030720539    0.000215733190998
55    8.100000000000000    8.100000000000000    0.000000000000000   -0.016423795372248   -0.016112117096782   -0.009954780340195
63    9.449999999999999    9.449999999999999    1.350000000000000   -0.070993058383465   -0.076589420437813    0.070515006780624
2    0.000000000000000    0.000000000000000    5.400000000000000   -0.009731740690768    0.014647077769041   -0.014560882002115
10    1.350000000000000    1.350000000000000    6.750000000000000    0.000546233961359    0.006464042235166    0.000064815918449
20    2.700000000000000    2.700000000000000    5.400000000000000    0.010088911280036   -0.009814176708460    0.010044440627098
25    4.050000000000000    1.350000000000000    4.050000000000000    0.003025325248018    0.004581946879625    0.006123141385615
34    5.400000000000000    0.000000000000000    5.400000000000000   -0.001210109563544   -0.000278650841210    0.000065493164584
42    6.750000000000000    1.350000000000000    6.750000000000000    0.000243498987402   -0.002934689167887    0.004209472797811
52    8.100000000000000    2.700000000000000    5.400000000000000    0.009239872917533   -0.009248734451830   -0.008807738311589
57    9.449999999999999    1.350000000000000    4.050000000000000    0.064390614628792    0.067192986607552   -0.068114429712296
6    0.000000000000000    5.400000000000000    5.400000000000000   -0.009207818657160    0.016258696094155    0.016281435266137
11    1.350000000000000    4.050000000000000    4.050000000000000    0.072867669165134    0.071827135980129    0.073228091001511
14    1.350000000000000    6.750000000000000    6.750000000000000   -0.000261861947365   -0.003507890971377   -0.004171957727522
28    4.050000000000000    4.050000000000000    6.750000000000000   -0.001712171942927   -0.001496728276834   -0.001312104985118
29    4.050000000000000    6.750000000000000    4.050000000000000   -0.002681104931980   -0.001644742675126   -0.001813939423300
38    5.400000000000000    5.400000000000000    5.400000000000000   -0.000082631595433   -0.000236696563661   -0.000023291446269
43    6.750000000000000    4.050000000000000    4.050000000000000    0.000494648469612    0.003359257709235   -0.003220224287361
46    6.750000000000000    6.750000000000000    6.750000000000000   -0.000337868346833   -0.000092919071903   -0.000004145258572
60    9.449999999999999    4.050000000000000    6.750000000000000    0.004704745486379    0.001568417064846    0.000957721204031
61    9.449999999999999    6.750000000000000    4.050000000000000    0.002068928675726   -0.003172711469233   -0.002341166604310
15    1.350000000000000    9.449999999999999    4.050000000000000   -0.002058162819594   -0.008590449579060    0.002049435395747
24    2.700000000000000    8.100000000000000    5.400000000000000    0.000456533394754    0.000131212174892   -0.000033067160985
32    4.050000000000000    9.449999999999999    6.750000000000000    0.001670946949162   -0.001457212143578   -0.002807806245983
47    6.750000000000000    9.449999999999999    4.050000000000000   -0.000705814862158   -0.000338539859513   -0.000907737237867
56    8.100000000000000    8.100000000000000    5.400000000000000    0.000464319047751    0.000055581476772   -0.000343446154147
64    9.449999999999999    9.449999999999999    6.750000000000000   -0.004738961346447    0.001517144613899    0.003237865166739
4    0.000000000000000    2.700000000000000    8.100000000000000    0.009829346090555    0.010447788983583   -0.009805339388549
18    2.700000000000000    0.000000000000000    8.100000000000000   -0.014628263190389   -0.009339958429337    0.014303382486105
26    4.050000000000000    1.350000000000000    9.449999999999999    0.006698272656649   -0.000402073492296   -0.002588697243482
36    5.400000000000000    2.700000000000000    8.100000000000000   -0.000145090918522   -0.000344251864590   -0.000179412774742
50    8.100000000000000    0.000000000000000    8.100000000000000   -0.016306739300489   -0.010009208694100   -0.016029465943575
58    9.449999999999999    1.350000000000000    9.449999999999999   -0.073630936443806    0.074495218694210   -0.072695039212704
12    1.350000000000000    4.050000000000000    9.449999999999999   -0.006385216023773    0.004226258024573   -0.002883249660954
22    2.700000000000000    5.400000000000000    8.100000000000000    0.000236077234149   -0.000496743945405   -0.000181622046512
30    4.050000000000000    6.750000000000000    9.449999999999999    0.002119435230270   -0.002429199405015   -0.001863184617832
44    6.750000000000000    4.050000000000000    9.449999999999999    0.003443167079240   -0.003797938115895    0.003118259133771
54    8.100000000000000    5.400000000000000    8.100000000000000    0.000283258152194   -0.000412752415286    0.000188453443116
62    9.449999999999999    6.750000000000000    9.449999999999999   -0.001525533269159   -0.001250545494258    0.005983058363199
8    0.000000000000000    8.100000000000000    8.100000000000000    0.009222906082869    0.009956050664186    0.008974315598607
16    1.350000000000000    9.449999999999999    9.449999999999999   -0.068968020379543    0.065539948642254    0.064844638109207
40    5.400000000000000    8.100000000000000    8.100000000000000   -0.000046544533689    0.000134867615998    0.000208730809391
48    6.750000000000000    9.449999999999999    9.449999999999999    0.004994509276003    0.000991438399069    0.001030408660881
