ITEM: TIMESTEP
0
ITEM: NUMBER OF ATOMS
64
ITEM: BOX BOUNDS xy xz yz pp pp pp
0.0000000000000000e+00 1.0800000000000001e+01 0.0000000000000000e+00
0.0000000000000000e+00 1.0800000000000001e+01 0.0000000000000000e+00
0.0000000000000000e+00 1.0800000000000001e+01 0.0000000000000000e+00
ITEM: ATOMS id xu yu zu fx fy fz
1    0.040000000000000    0.000000000000000    0.000000000000000   -0.351613432168961    0.000661003869027   -0.000203188945306
3    0.000000000000000    2.700000000000000    2.700000000000000   -0.000153788598254    0.026025801897049   -0.006452517118305
9    1.350000000000000    1.350000000000000    1.350000000000000    0.066788479685783    0.074684798717499    0.072228275239468
17    2.700000000000000    0.000000000000000    2.700000000000000    0.007275504991412   -0.018993731588125    0.025282552465796
19    2.700000000000000    2.700000000000000    0.000000000000000    0.016230501234531    0.016019955277443   -0.009923845529556
33    5.400000000000000    0.000000000000000    0.000000000000000   -0.001495255157351   -0.000547223724425   -0.000017623417079
35    5.400000000000000    2.700000000000000    2.700000000000000    0.000327165500494   -0.000089309876785    0.000227044336498
41    6.750000000000000    1.350000000000000    1.350000000000000   -0.003535272786394   -0.000351723167114    0.002473625354469
49    8.100000000000000    0.000000000000000    2.700000000000000    0.004840541165322   -0.018912646919489   -0.024326482787728
51    8.100000000000000    2.700000000000000    0.000000000000000    0.014710023067892   -0.014818448573351   -0.008949602954090
5    0.000000000000000    5.400000000000000    0.000000000000000    0.000666560081299    0.000999888638034   -0.000040222803364
13    1.350000000000000    6.750000000000000    1.350000000000000    0.004718358628452   -0.001305041601881   -0.006016022525728
21    2.700000000000000    5.400000000000000    2.700000000000000   -0.000466632889584   -0.000078160170233    0.000168697326444
27    4.050000000000000    4.050000000000000    1.350000000000000   -0.001682939706370   -0.002438544994220   -0.001790426671505
37    5.400000000000000    5.400000000000000    0.000000000000000    0.001024200930260   -0.000051898183301   -0.000037931255065
45    6.750000000000000    6.750000000000000    1.350000000000000   -0.001669958466664   -0.002455381676555    0.001879703952000
53    8.100000000000000    5.400000000000000    2.700000000000000   -0.000475306180306   -0.000074345414760   -0.000161581556313
59    9.449999999999999    4.050000000000000    1.350000000000000    0.004530764184892   -0.000758257112466    0.006058575585485
7    0.000000000000000    8.100000000000000    2.700000000000000   -0.000111250643386    0.023677695542574    0.005582813639194
23    2.700000000000000    8.100000000000000    0.000000000000000    0.016280388459563   -0.016524825245142    0.009445127099752
31    4.050000000000000    9.449999999999999    1.350000000000000   -0.003081227187067   -0.000486457429361   -0.002465236466378
39    5.400000000000000    8.100000000000000    2.700000000000000    0.000275392289041   -0.000070344423875   -0.000219341716729
55    8.100000000000000    8.100000000000000    0.000000000000000    0.014638754539192    0.014282987453043    0.009257225319743
63    9.449999999999999    9.449999999999999    1.350000000000000    0.067129090428352    0.070431217551231   -0.068596757948399
2    0.000000000000000    0.040000000000000    5.400000000000000    0.000687714840751   -0.351653307676315   -0.000164441298693
10    1.350000000000000    1.350000000000000    6.750000000000000    0.074707031250000    0.066793523728848    0.072258725762367
20    2.700000000000000    2.700000000000000    5.400000000000000    0.016039397567511    0.016207113862038   -0.009864580817521
25    4.050000000000000    1.350000000000000    4.050000000000000   -0.002521580317989    0.001552656991407    0.000891827279702
34    5.400000000000000    0.000000000000000    5.400000000000000    0.001001996337436    0.000651739304885    0.000024520209990
42    6.750000000000000    1.350000000000000    6.750000000000000   -0.001301984768361    0.004718222655356   -0.006003728136420
52    8.100000000000000    2.700000000000000    5.400000000000000   -0.016540586948395    0.016290551051497    0.009521499276161
57    9.449999999999999    1.350000000000000    4.050000000000000   -0.068568095564842    0.073691740632057   -0.070445194840431
6    0.000000000000000    5.400000000000000    5.400000000000000   -0.000566826085560   -0.001512257382274   -0.000002288259566
11    1.350000000000000    4.050000000000000    4.050000000000000   -0.002091285306960   -0.006258685607463   -0.000699835596606
14    1.350000000000000    6.750000000000000    6.750000000000000   -0.000349232228473   -0.003521765582263    0.002483759773895
28    4.050000000000000    4.050000000000000    6.750000000000000   -0.002425000770018   -0.001675321953371   -0.001795829972252
29    4.050000000000000    6.750000000000000    4.050000000000000    0.002734444802627   -0.002128787804395   -0.001387768308632
38    5.400000000000000    5.400000000000000    5.400000000000000   -0.000054584816098    0.001008487306535    0.000007631257176
43    6.750000000000000    4.050000000000000    4.050000000000000    0.002696692012250   -0.002093986375257    0.001347681391053
46    6.750000000000000    6.750000000000000    6.750000000000000   -0.002430853899568   -0.001674693776295    0.001853525871411
60    9.449999999999999    4.050000000000000    6.750000000000000   -0.000496982946061   -0.003063238458708   -0.002438982017338
61    9.449999999999999    6.750000000000000    4.050000000000000   -0.002261172980070   -0.006723531056195    0.000770930491854
15    1.350000000000000    9.449999999999999    4.050000000000000   -0.064418002963066    0.074112206697464    0.066927395761013
24    2.700000000000000    8.100000000000000    5.400000000000000   -0.014795873314142    0.014746742323041   -0.008929934352636
32    4.050000000000000    9.449999999999999    6.750000000000000   -0.000785979558714    0.004531048703939    0.006072680465877
47    6.750000000000000    9.449999999999999    4.050000000000000   -0.003031256608665    0.001332809450105   -0.000902995758224
56    8.100000000000000    8.100000000000000    5.400000000000000    0.014282863587141    0.014616724103689    0.009319084696472
64    9.449999999999999    9.449999999999999    6.750000000000000    0.070419088006020    0.067118376493454   -0.068561851978302
4    0.000000000000000    2.700000000000000    8.100000000000000   -0.018968408927321    0.007256859913468    0.025262691080570
18    2.700000000000000    0.000000000000000    8.100000000000000    0.026045884937048   -0.000132252607727   -0.006444172933698
26    4.050000000000000    1.350000000000000    9.449999999999999   -0.006287844385952   -0.002097823191434   -0.000767179531977
36    5.400000000000000    2.700000000000000    8.100000000000000   -0.000110224100354   -0.000471544801258    0.000184104690561
50    8.100000000000000    0.000000000000000    8.100000000000000    0.023663168773055   -0.000173171341885    0.005573721602559
58    9.449999999999999    1.350000000000000    9.449999999999999    0.074111521244049   -0.064393468201160    0.066895604133606
12    1.350000000000000    4.050000000000000    9.449999999999999    0.001521151978523   -0.002483043121174    0.000864050700329
22    2.700000000000000    5.400000000000000    8.100000000000000   -0.000056739896536    0.000288962677587    0.000250886863796
30    4.050000000000000    6.750000000000000    9.449999999999999   -0.002133826259524    0.002738998038694    0.001300822943449
44    6.750000000000000    4.050000000000000    9.449999999999999   -0.002135579939932    0.002722005825490   -0.001425670925528
54    8.100000000000000    5.400000000000000    8.100000000000000   -0.000062747392803    0.000282203138340   -0.000251166988164
62    9.449999999999999    6.750000000000000    9.449999999999999    0.001352052087896   -0.003035542555153   -0.000916223798413
8    0.000000000000000    8.100000000000000    8.100000000000000   -0.018927840515971    0.004879866726696   -0.024324946105480
16    1.350000000000000    9.449999999999999    9.449999999999999    0.073703512549400   -0.068584352731705   -0.070441216230392
40    5.400000000000000    8.100000000000000    8.100000000000000   -0.000075640899013   -0.000459630042315   -0.000147058628500
48    6.750000000000000    9.449999999999999    9.449999999999999   -0.006719028111547   -0.002231399761513    0.000701117096469
