ITEM: TIMESTEP
0
ITEM: NUMBER OF ATOMS
64
ITEM: BOX BOUNDS xy xz yz pp pp pp
0.0000000000000000e+00 1.0800000000000001e+01 0.0000000000000000e+00
0.0000000000000000e+00 1.0800000000000001e+01 0.0000000000000000e+00
0.0000000000000000e+00 1.0800000000000001e+01 0.0000000000000000e+00
ITEM: ATOMS id xu yu zu fx fy fz
1    0.040000000000000    0.000000000000000    0.000000000000000   -0.351616263389587    0.000427522463724   -0.001572049455717
3    0.000000000000000    2.700000000000000    2.700000000000000   -0.018939130008221   -0.004764971323311    0.024466188624501
9    1.350000000000000    1.350000000000000    1.350000000000000    0.071038648486137    0.072378277778625    0.066370315849781
17    2.700000000000000    0.000000000000000    2.700000000000000    0.001695036655292   -0.018831940367818    0.030945241451263
19    2.700000000000000    2.700000000000000    0.000000000000000    0.016440823674202    0.016451619565487   -0.009599109180272
33    5.400000000000000    0.000000000000000    0.000000000000000   -0.001495523378253   -0.000016002915800    0.000969546847045
35    5.400000000000000    2.700000000000000    2.700000000000000   -0.000051081893616    0.000209207151784   -0.000066795968451
41    6.750000000000000    1.350000000000000    1.350000000000000   -0.007679421454668    0.002514685504138   -0.000996651477180
49    8.100000000000000    0.000000000000000    2.700000000000000    0.029195319861174    0.000006119104910    0.000146168866195
51    8.100000000000000    2.700000000000000    0.000000000000000    0.014889598824084   -0.014779975637794   -0.009067414328456
5    0.000000000000000    5.400000000000000    0.000000000000000    0.000666616833769    0.000032785930671    0.000946251675487
13    1.350000000000000    6.750000000000000    1.350000000000000    0.004716949537396   -0.001978334039450   -0.005342982709408
21    2.700000000000000    5.400000000000000    2.700000000000000   -0.000218472414417   -0.000345553737134   -0.000302994856611
27    4.050000000000000    4.050000000000000    1.350000000000000   -0.002140662865713   -0.002800304675475   -0.001416159444489
37    5.400000000000000    5.400000000000000    0.000000000000000    0.001024724217132    0.000016510835849   -0.000103052327177
45    6.750000000000000    6.750000000000000    1.350000000000000   -0.001669767894782   -0.002375062089413    0.001799234654754
53    8.100000000000000    5.400000000000000    2.700000000000000   -0.000327801739331    0.000000246627678   -0.000239033950493
59    9.449999999999999    4.050000000000000    1.350000000000000    0.001329020829871    0.003724591108039    0.001591887092218
7    0.000000000000000    8.100000000000000    2.700000000000000   -0.000103936094092    0.023547789081931    0.005704813636839
23    2.700000000000000    8.100000000000000    0.000000000000000    0.016041822731495   -0.016068253666162    0.009728739038110
31    4.050000000000000    9.449999999999999    1.350000000000000   -0.002131041139364   -0.000765799893998   -0.002743105636910
39    5.400000000000000    8.100000000000000    2.700000000000000    0.000280917651253    0.000154523208039   -0.000445385463536
55    8.100000000000000    8.100000000000000    0.000000000000000    0.014489336870611    0.014348077587783    0.009181858040392
63    9.449999999999999    9.449999999999999    1.350000000000000    0.069628626108170    0.066486798226833   -0.072465844452381
2    0.000000000000000    0.000000000000000    5.440000000000001    0.000678995042108   -0.000201671151444   -0.351619213819504
10    1.350000000000000    1.350000000000000    6.750000000000000    0.074707694351673    0.068144455552101    0.070903845131397
20    2.700000000000000    2.700000000000000    5.400000000000000    0.009572399780154    0.009760474786162   -0.009976951405406
25    4.050000000000000    1.350000000000000    4.050000000000000   -0.000784402596764    0.001937297871336    0.000419406540459
34    5.400000000000000    0.000000000000000    5.400000000000000    0.001001552562229   -0.000007655820809    0.000682120909914
42    6.750000000000000    1.350000000000000    6.750000000000000   -0.001307560596615   -0.001834998023696    0.000549634278286
52    8.100000000000000    2.700000000000000    5.400000000000000    0.008713007904589   -0.008938425220549   -0.009436890482903
57    9.449999999999999    1.350000000000000    4.050000000000000    0.070452079176903   -0.063992895185947    0.071708858013153
6    0.000000000000000    5.400000000000000    5.400000000000000   -0.000566898437683   -0.000012813135982    0.000657225027680
11    1.350000000000000    4.050000000000000    4.050000000000000    0.002236607251689   -0.000417006114731    0.001441003987566
14    1.350000000000000    6.750000000000000    6.750000000000000   -0.004704336635768    0.002182372612879    0.004691488575190
28    4.050000000000000    4.050000000000000    6.750000000000000   -0.001434601377696   -0.001344994525425   -0.001467861933634
29    4.050000000000000    6.750000000000000    4.050000000000000    0.001786328153685   -0.001853653928265   -0.001110280980356
38    5.400000000000000    5.400000000000000    5.400000000000000   -0.000054564327002    0.000021543353796   -0.000526593998075
43    6.750000000000000    4.050000000000000    4.050000000000000   -0.001493088086136    0.001437580212951   -0.001572707667947
46    6.750000000000000    6.750000000000000    6.750000000000000    0.001717086182907    0.001801960170269   -0.001017179340124
60    9.449999999999999    4.050000000000000    6.750000000000000    0.002117106691003    0.001040978124365    0.001503022038378
61    9.449999999999999    6.750000000000000    4.050000000000000   -0.004848453681916   -0.002757044974715    0.004647721070796
15    1.350000000000000    9.449999999999999    4.050000000000000   -0.064422577619553    0.070955514907837    0.070088908076286
24    2.700000000000000    8.100000000000000    5.400000000000000   -0.009235018864274    0.009066456928849   -0.009079222567379
32    4.050000000000000    9.449999999999999    6.750000000000000   -0.002523791277781    0.005009855609387    0.005694269668311
47    6.750000000000000    9.449999999999999    4.050000000000000   -0.003025911515579   -0.005127697251737    0.005557219032198
56    8.100000000000000    8.100000000000000    5.400000000000000   -0.010059173218906   -0.009841028600931   -0.009596467018127
64    9.449999999999999    9.449999999999999    6.750000000000000   -0.068591743707657   -0.075067020952702    0.069070644676685
4    0.000000000000000    2.700000000000000    8.100000000000000   -0.018976612016559    0.007266030646861    0.025246515870094
18    2.700000000000000    0.000000000000000    8.100000000000000    0.032535370439291   -0.000006398379355   -0.000016558711650
26    4.050000000000000    1.350000000000000    9.449999999999999   -0.007281458470970   -0.002428982406855   -0.001100789639167
36    5.400000000000000    2.700000000000000    8.100000000000000   -0.000115972929052   -0.000242994050495   -0.000045433873311
50    8.100000000000000    0.000000000000000    8.100000000000000   -0.001591441221535    0.018782317638397    0.030813017860055
58    9.449999999999999    1.350000000000000    9.449999999999999    0.071583636105061   -0.068403638899326    0.062885776162148
12    1.350000000000000    4.050000000000000    9.449999999999999    0.001522221136838   -0.003143500536680    0.001524660503492
22    2.700000000000000    5.400000000000000    8.100000000000000   -0.000275487080216   -0.000019101771613   -0.000196075707208
30    4.050000000000000    6.750000000000000    9.449999999999999   -0.001676314393990    0.002363042440265    0.001660345704295
44    6.750000000000000    4.050000000000000    9.449999999999999   -0.002136262366548    0.002817566506565   -0.001520253601484
54    8.100000000000000    5.400000000000000    8.100000000000000   -0.000239666580455    0.000398106756620   -0.000302521308186
62    9.449999999999999    6.750000000000000    9.449999999999999    0.004553287290037    0.001433279714547   -0.005395149346441
8    0.000000000000000    8.100000000000000    8.100000000000000   -0.000144688179716   -0.026046294718981    0.006448673084378
16    1.350000000000000    9.449999999999999    9.449999999999999    0.069479599595070   -0.070822946727276   -0.076435454189777
40    5.400000000000000    8.100000000000000    8.100000000000000    0.000302346190438   -0.000164876691997   -0.000444270670414
48    6.750000000000000    9.449999999999999    9.449999999999999   -0.002533628139645    0.000684315455146   -0.002824142342433
