ITEM: TIMESTEP
0
ITEM: NUMBER OF ATOMS
64
ITEM: BOX BOUNDS xy xz yz pp pp pp
0.0000000000000000e+00 1.0800000000000001e+01 0.0000000000000000e+00
0.0000000000000000e+00 1.0800000000000001e+01 0.0000000000000000e+00
0.0000000000000000e+00 1.0800000000000001e+01 0.0000000000000000e+00
ITEM: ATOMS id xu yu zu fx fy fz
1    0.040000000000000    0.000000000000000    0.000000000000000   -0.352255225181580    0.000009240611689   -0.000018512801034
3    0.000000000000000    2.700000000000000    2.700000000000000   -0.000003744441528    0.019604239612818    0.000011447351426
9    1.350000000000000    1.350000000000000    1.350000000000000    0.067185327410698    0.075034439563751    0.070414468646049
17    2.700000000000000    0.000000000000000    2.700000000000000    0.001601325115189   -0.018830951303244    0.030837869271636
19    2.700000000000000    2.700000000000000    0.000000000000000    0.016514211893082    0.016310065984726   -0.009518491104245
33    5.400000000000000    0.000000000000000    0.000000000000000   -0.002496130298823    0.000000153668225   -0.000022052787244
35    5.400000000000000    2.700000000000000    2.700000000000000    0.000008906928997    0.000367847969756    0.000002114451490
41    6.750000000000000    1.350000000000000    1.350000000000000   -0.003194629680365   -0.000678101205267    0.003458127379417
49    8.100000000000000    0.000000000000000    2.700000000000000   -0.001592382672243   -0.018792267888784   -0.030811052769423
51    8.100000000000000    2.700000000000000    0.000000000000000    0.014938244596124   -0.014584084972739   -0.008948067203164
5    0.000000000000000    5.400000000000000    0.000000000000000    0.001201442442834    0.000008570961654   -0.000038382713683
13    1.350000000000000    6.750000000000000    1.350000000000000    0.004438331350684   -0.001027101650834   -0.005072040949017
21    2.700000000000000    5.400000000000000    2.700000000000000    0.000008124043234   -0.000347276305547   -0.000080419122241
27    4.050000000000000    4.050000000000000    1.350000000000000   -0.002039246726781   -0.002787436125800   -0.001344805350527
37    5.400000000000000    5.400000000000000    0.000000000000000    0.001079639885575   -0.000000063097104   -0.000012168544345
45    6.750000000000000    6.750000000000000    1.350000000000000   -0.002031578915194   -0.002805698662996    0.001386249205098
53    8.100000000000000    5.400000000000000    2.700000000000000   -0.000028813519748   -0.000400680437451    0.000064530526288
59    9.449999999999999    4.050000000000000    1.350000000000000    0.004220895469189   -0.000448464183137    0.005062381736934
7    0.000000000000000    8.100000000000000    2.700000000000000    0.000034267155570    0.017989715561271    0.000018200022168
23    2.700000000000000    8.100000000000000    0.000000000000000    0.016510445624590   -0.016306869685650    0.009443254210055
31    4.050000000000000    9.449999999999999    1.350000000000000   -0.002817426342517   -0.000757709378377   -0.003417513333261
39    5.400000000000000    8.100000000000000    2.700000000000000    0.000001124914888    0.000397040392272    0.000030347611755
55    8.100000000000000    8.100000000000000    0.000000000000000    0.014925260096788    0.014565088786185    0.008894978091121
63    9.449999999999999    9.449999999999999    1.350000000000000    0.067564398050308    0.070945575833321   -0.066922806203365
10    1.350000000000000    1.350000000000000    6.750000000000000   -0.067593812942505   -0.070964120328426   -0.066869944334030
20    2.700000000000000    2.700000000000000    5.400000000000000   -0.014920279383659   -0.014569990336895    0.008941668085754
25    4.050000000000000    1.350000000000000    4.050000000000000    0.003196765668690   -0.000685905106366   -0.003480015788227
34    5.400000000000000    0.000000000000000    5.400000000000000    0.002490040380508   -0.000036383804400    0.000005962327123
42    6.750000000000000    1.350000000000000    6.750000000000000    0.002801732858643    0.000787230208516   -0.003387005534023
2   -0.039999999999999    0.000000000000000    5.400000000000000    0.352273851633072   -0.000023065280402    0.000008761067875
52    8.100000000000000    2.700000000000000    5.400000000000000   -0.016505626961589    0.016334967687726    0.009497856721282
57    9.449999999999999    1.350000000000000    4.050000000000000   -0.067194566130638    0.075045615434647   -0.070435076951981
6    0.000000000000000    5.400000000000000    5.400000000000000   -0.001229815185070   -0.000007384456694   -0.000004681758583
11    1.350000000000000    4.050000000000000    4.050000000000000   -0.004264365881681   -0.000444228295237   -0.005048853810877
14    1.350000000000000    6.750000000000000    6.750000000000000   -0.004232791718096    0.000454829103546    0.005070888437331
28    4.050000000000000    4.050000000000000    6.750000000000000    0.002049012808129    0.002814876148477    0.001411262433976
29    4.050000000000000    6.750000000000000    4.050000000000000    0.002055841963738   -0.002792699262500   -0.001382413902320
38    5.400000000000000    5.400000000000000    5.400000000000000   -0.001040002331138    0.000023436732590    0.000001053325832
43    6.750000000000000    4.050000000000000    4.050000000000000    0.002036426449195   -0.002763735363260    0.001360905473121
46    6.750000000000000    6.750000000000000    6.750000000000000    0.002054695505649    0.002784669864923   -0.001342573435977
60    9.449999999999999    4.050000000000000    6.750000000000000   -0.004437426105142    0.001024370547384   -0.005058303475380
61    9.449999999999999    6.750000000000000    4.050000000000000   -0.004451849963516   -0.001005161087960    0.005135571584105
15    1.350000000000000    9.449999999999999    4.050000000000000   -0.067562080919743    0.070938676595688    0.066908605396748
24    2.700000000000000    8.100000000000000    5.400000000000000   -0.014910574071109    0.014611100777984   -0.008936909958720
32    4.050000000000000    9.449999999999999    6.750000000000000    0.003184808418155    0.000645684835035    0.003484189743176
47    6.750000000000000    9.449999999999999    4.050000000000000    0.002818112261593   -0.000814676110167    0.003452940843999
56    8.100000000000000    8.100000000000000    5.400000000000000   -0.016520621255040   -0.016311440616846   -0.009490250609815
64    9.449999999999999    9.449999999999999    6.750000000000000   -0.067219406366348   -0.075058549642563    0.070431202650070
4    0.000000000000000    2.700000000000000    8.100000000000000   -0.000007473955975   -0.017977897077799    0.000006799120456
18    2.700000000000000    0.000000000000000    8.100000000000000    0.001594888162799    0.018788993358612   -0.030795497819781
26    4.050000000000000    1.350000000000000    9.449999999999999   -0.002805614611134    0.000749638420530    0.003386461175978
36    5.400000000000000    2.700000000000000    8.100000000000000    0.000001960521331   -0.000410805572756    0.000016284524463
50    8.100000000000000    0.000000000000000    8.100000000000000   -0.001572514884174    0.018773391842842    0.030828589573503
58    9.449999999999999    1.350000000000000    9.449999999999999    0.067558489739895   -0.070933990180492    0.066883198916912
12    1.350000000000000    4.050000000000000    9.449999999999999    0.004432347603142    0.001038734917529    0.005054050590843
22    2.700000000000000    5.400000000000000    8.100000000000000    0.000021406449378    0.000366561871488    0.000104045597254
30    4.050000000000000    6.750000000000000    9.449999999999999   -0.002056010998785    0.002821664791554    0.001299962052144
44    6.750000000000000    4.050000000000000    9.449999999999999   -0.002036815043539    0.002817168831825   -0.001424395712093
54    8.100000000000000    5.400000000000000    8.100000000000000   -0.000014898396330    0.000399556651246   -0.000075698102592
62    9.449999999999999    6.750000000000000    9.449999999999999    0.004227728117257    0.000452626147307   -0.005061817821115
8    0.000000000000000    8.100000000000000    8.100000000000000   -0.000012934920960   -0.019583147019148    0.000012087461073
16    1.350000000000000    9.449999999999999    9.449999999999999    0.067225515842438   -0.075054600834846   -0.070448026061058
40    5.400000000000000    8.100000000000000    8.100000000000000   -0.000016622003386   -0.000380804762244   -0.000005146488547
48    6.750000000000000    9.449999999999999    9.449999999999999   -0.003190315328538    0.000679575954564   -0.003473383141682
