ITEM: TIMESTEP
0
ITEM: NUMBER OF ATOMS
64
ITEM: BOX BOUNDS xy xz yz pp pp pp
0.0000000000000000e+00 1.0800000000000001e+01 0.0000000000000000e+00
0.0000000000000000e+00 1.0800000000000001e+01 0.0000000000000000e+00
0.0000000000000000e+00 1.0800000000000001e+01 0.0000000000000000e+00
ITEM: ATOMS id xu yu zu fx fy fz
1    0.040000000000000    0.000000000000000    0.000000000000000   -0.351607680320740   -0.000005155714462   -0.000033400865505
3    0.000000000000000    2.700000000000000    2.700000000000000   -0.009875476360321    0.009789979085326    0.009802340529859
9    1.350000000000000    1.350000000000000    1.350000000000000    0.070207893848419    0.071542665362358    0.071570545434952
17    2.700000000000000    0.000000000000000    2.700000000000000    0.016258228570223   -0.009765772148967    0.016282241791487
19    2.700000000000000    2.700000000000000    0.000000000000000    0.016257788985968    0.016276752576232   -0.009766400791705
33    5.400000000000000    0.000000000000000    0.000000000000000   -0.001495208591223   -0.000013126991689   -0.000017178244889
35    5.400000000000000    2.700000000000000    2.700000000000000    0.000175268709427    0.000170607527252    0.000194824882783
41    6.750000000000000    1.350000000000000    1.350000000000000   -0.005091318394989    0.000900274084415    0.000918671430554
49    8.100000000000000    0.000000000000000    2.700000000000000    0.014649178832769   -0.009072028100491   -0.014540263451636
51    8.100000000000000    2.700000000000000    0.000000000000000    0.014673329889774   -0.014555467292666   -0.009103074669838
5    0.000000000000000    5.400000000000000    0.000000000000000    0.000666744832415    0.000012947130017   -0.000040754151996
13    1.350000000000000    6.750000000000000    1.350000000000000    0.003102830611169    0.000610715767834   -0.003425624221563
21    2.700000000000000    5.400000000000000    2.700000000000000   -0.000258305168245   -0.000115397066111   -0.000039066071622
27    4.050000000000000    4.050000000000000    1.350000000000000   -0.001899084774777   -0.002558788051829   -0.001575529458933
37    5.400000000000000    5.400000000000000    0.000000000000000    0.001023863325827    0.000012053176761   -0.000038159807445
45    6.750000000000000    6.750000000000000    1.350000000000000   -0.001909219427034   -0.002614740747958    0.001638722489588
53    8.100000000000000    5.400000000000000    2.700000000000000   -0.000289794930723   -0.000239554152358    0.000024870503694
59    9.449999999999999    4.050000000000000    1.350000000000000    0.002947677392513    0.001132673001848    0.003511508461088
7    0.000000000000000    8.100000000000000    2.700000000000000   -0.009183774702251    0.008994396775961   -0.008978995494545
23    2.700000000000000    8.100000000000000    0.000000000000000    0.016245532780886   -0.016263760626316    0.009681907482445
31    4.050000000000000    9.449999999999999    1.350000000000000   -0.004724318627268    0.000853190431371   -0.000820863642730
39    5.400000000000000    8.100000000000000    2.700000000000000    0.000036921119317    0.000193663407117   -0.000179761322215
55    8.100000000000000    8.100000000000000    0.000000000000000    0.014682132750750    0.014549249783158    0.009026130661368
63    9.449999999999999    9.449999999999999    1.350000000000000    0.070650219917297    0.067498110234737   -0.067517422139645
2    0.000000000000000    0.000000000000000    5.400000000000000    0.000674535229336   -0.000029475660995    0.000006286776625
10    1.350000000000000    1.350000000000000    6.750000000000000    0.003111443715170   -0.003439103020355    0.000647041131742
20    2.700000000000000    2.700000000000000    5.400000000000000   -0.000224774674280   -0.000038921833038   -0.000140100353747
25    4.050000000000000    1.350000000000000    4.050000000000000   -0.001904447097331   -0.001566294347867   -0.002544529037550
34    5.400000000000000    0.000000000000000    5.400000000000000    0.001000488642603   -0.000007029477274    0.000023836386390
42    6.750000000000000    1.350000000000000    6.750000000000000   -0.001923514297232    0.001600928721018   -0.002565938513726
52    8.100000000000000    2.700000000000000    5.400000000000000   -0.000278858846286    0.000050826929510   -0.000201458518859
57    9.449999999999999    1.350000000000000    4.050000000000000    0.002979785902426    0.003494324628264    0.001094629056752
6    0.000000000000000    5.400000000000000    5.400000000000000   -0.000566598726436   -0.000009853392839   -0.000001309439540
11    1.350000000000000    4.050000000000000    4.050000000000000   -0.001265141181648   -0.001535404007882   -0.001521665835753
14    1.350000000000000    6.750000000000000    6.750000000000000   -0.001265692990273    0.001559741795063    0.001571104861796
28    4.050000000000000    4.050000000000000    6.750000000000000    0.000121624238091    0.000211578182643   -0.000214548897929
29    4.050000000000000    6.750000000000000    4.050000000000000    0.000144372461364   -0.000211886654142    0.000227693148190
38    5.400000000000000    5.400000000000000    5.400000000000000   -0.000054494477808    0.000022815540433    0.000007150694728
43    6.750000000000000    4.050000000000000    4.050000000000000    0.000149621337187   -0.000204989744816   -0.000235073093791
46    6.750000000000000    6.750000000000000    6.750000000000000    0.000159609713592    0.000244471302722    0.000236431311350
60    9.449999999999999    4.050000000000000    6.750000000000000   -0.001319473492913    0.001658444292843   -0.001613586209714
61    9.449999999999999    6.750000000000000    4.050000000000000   -0.001348643796518   -0.001643848838285    0.001688224496320
15    1.350000000000000    9.449999999999999    4.050000000000000    0.003112440463156    0.003434854559600   -0.000615421973635
24    2.700000000000000    8.100000000000000    5.400000000000000   -0.000240412540734    0.000069966976298    0.000143655139254
32    4.050000000000000    9.449999999999999    6.750000000000000   -0.001899465569295    0.001569449086674    0.002572025172412
47    6.750000000000000    9.449999999999999    4.050000000000000   -0.001913693267852   -0.001628737198189    0.002598069608212
56    8.100000000000000    8.100000000000000    5.400000000000000   -0.000265983864665   -0.000050639268011    0.000250830344157
64    9.449999999999999    9.449999999999999    6.750000000000000    0.002948911162093   -0.003511955495924   -0.001100450637750
4    0.000000000000000    2.700000000000000    8.100000000000000   -0.009245100431144   -0.008993159979582    0.008995767682791
18    2.700000000000000    0.000000000000000    8.100000000000000    0.016259655356407    0.009710669517517   -0.016247620806098
26    4.050000000000000    1.350000000000000    9.449999999999999   -0.004730192013085   -0.000842549372464    0.000791776401456
36    5.400000000000000    2.700000000000000    8.100000000000000    0.000049683643738   -0.000211865408346    0.000216529413592
50    8.100000000000000    0.000000000000000    8.100000000000000    0.014659441076219    0.009052496403456    0.014557432383299
58    9.449999999999999    1.350000000000000    9.449999999999999    0.070651352405548   -0.067482978105545    0.067472204566002
12    1.350000000000000    4.050000000000000    9.449999999999999    0.003102183109149   -0.000597785459831    0.003411124460399
22    2.700000000000000    5.400000000000000    8.100000000000000   -0.000243355520070    0.000132079352625    0.000064266583649
30    4.050000000000000    6.750000000000000    9.449999999999999   -0.001892233500257    0.002579029183835    0.001540352823213
44    6.750000000000000    4.050000000000000    9.449999999999999   -0.001921150833368    0.002601956482977   -0.001641994691454
54    8.100000000000000    5.400000000000000    8.100000000000000   -0.000270260497928    0.000236207270063   -0.000042418891098
62    9.449999999999999    6.750000000000000    9.449999999999999    0.002968170214444   -0.001115217106417   -0.003505960572511
8    0.000000000000000    8.100000000000000    8.100000000000000   -0.009858513250947   -0.009780927561224   -0.009783750399947
16    1.350000000000000    9.449999999999999    9.449999999999999    0.070218354463577   -0.071568936109543   -0.071590557694435
40    5.400000000000000    8.100000000000000    8.100000000000000    0.000153924804181   -0.000196798704565   -0.000185984186828
48    6.750000000000000    9.449999999999999    9.449999999999999   -0.005077023524791   -0.000895046629012   -0.000939386896789
