ITEM: TIMESTEP
0
ITEM: NUMBER OF ATOMS
64
ITEM: BOX BOUNDS xy xz yz pp pp pp
0.0000000000000000e+00 1.0800000000000001e+01 0.0000000000000000e+00
0.0000000000000000e+00 1.0800000000000001e+01 0.0000000000000000e+00
0.0000000000000000e+00 1.0800000000000001e+01 0.0000000000000000e+00
ITEM: ATOMS id xu yu zu fx fy fz
1    0.040000000000000    0.000000000000000    0.000000000000000   -0.281828790903091    0.069727517664433    0.069700732827187
3    0.000000000000000    2.700000000000000    2.700000000000000    0.061840556561947   -0.059022262692451   -0.059009939432144
9    1.390000000000000    1.350000000000000    1.350000000000000   -0.281372010707855    0.069427281618118    0.069461002945900
17    2.700000000000000    0.000000000000000    2.700000000000000    0.086632490158081   -0.081764340400696    0.088262155652046
19    2.700000000000000    2.700000000000000    0.000000000000000    0.086633861064911    0.088258937001228   -0.081768438220024
33    5.400000000000000    0.000000000000000    0.000000000000000   -0.006332622841001    0.000855298712850    0.000850584357977
35    5.400000000000000    2.700000000000000    2.700000000000000   -0.004663387313485   -0.000699293799698   -0.000674371607602
41    6.750000000000000    1.350000000000000    1.350000000000000   -0.006496515125036    0.000862698361743    0.000880797917489
49    8.100000000000000    0.000000000000000    2.700000000000000    0.009747594594955   -0.010034436360002   -0.013750357553363
51    8.100000000000000    2.700000000000000    0.000000000000000    0.009771946817636   -0.013765219599009   -0.010065302252769
5    0.000000000000000    5.400000000000000    0.000000000000000    0.003667487064376    0.001031099003740   -0.003519291989505
13    1.350000000000000    6.750000000000000    1.350000000000000    0.003735726466402    0.000697131035849   -0.003441857406870
21    2.700000000000000    5.400000000000000    2.700000000000000    0.002835015999153   -0.000832702033222   -0.003508554305881
27    4.050000000000000    4.050000000000000    1.350000000000000    0.014260290190578    0.013602267950773    0.008103270083666
37    5.400000000000000    5.400000000000000    0.000000000000000   -0.000848112569656   -0.002524849027395    0.001543852966279
45    6.750000000000000    6.750000000000000    1.350000000000000   -0.000944103638176   -0.002627614419907    0.001635066466406
53    8.100000000000000    5.400000000000000    2.700000000000000   -0.002224880037829    0.002355131320655    0.001642202492803
59    9.449999999999999    4.050000000000000    1.350000000000000    0.017690315842628   -0.013551833108068    0.012591812759638
7    0.000000000000000    8.100000000000000    2.700000000000000   -0.006250412203372    0.008039645850658   -0.005565833300352
23    2.700000000000000    8.100000000000000    0.000000000000000    0.019256133586168   -0.015470080077648    0.013069329783320
31    4.050000000000000    9.449999999999999    1.350000000000000    0.011345477774739   -0.015278987586498   -0.010504346340895
39    5.400000000000000    8.100000000000000    2.700000000000000   -0.001848235609941    0.002724609803408   -0.001755699282512
55    8.100000000000000    8.100000000000000    0.000000000000000    0.012844530865550    0.012050012126565    0.007465967442840
63    9.449999999999999    9.449999999999999    1.350000000000000    0.085493057966232    0.082011789083481   -0.076512090861797
2    0.000000000000000    0.000000000000000    5.400000000000000    0.003675032872707   -0.003509342437610    0.001023798249662
10    1.350000000000000    1.350000000000000    6.750000000000000    0.003744166344404   -0.003454797202721    0.000734276371077
20    2.700000000000000    2.700000000000000    5.400000000000000    0.002869845600799   -0.003508206456900   -0.000857842096593
25    4.050000000000000    1.350000000000000    4.050000000000000    0.014253940433264    0.008112512528896    0.013615591451526
34    5.400000000000000    0.000000000000000    5.400000000000000   -0.000871535739861    0.001574749243446   -0.002513078739867
42    6.750000000000000    1.350000000000000    6.750000000000000   -0.000958747346886    0.001597571419552   -0.002578529529274
52    8.100000000000000    2.700000000000000    5.400000000000000   -0.002214164938778    0.001668830402195    0.002393709961325
57    9.449999999999999    1.350000000000000    4.050000000000000    0.017722921445966    0.012574843131006   -0.013589848764241
6    0.000000000000000    5.400000000000000    5.400000000000000   -0.001910059130751    0.001648491248488    0.001657049171627
11    1.350000000000000    4.050000000000000    4.050000000000000   -0.010516040027142   -0.010585296899080   -0.010571967810392
14    1.350000000000000    6.750000000000000    6.750000000000000   -0.001791271846741    0.001535850809887    0.001547216437757
28    4.050000000000000    4.050000000000000    6.750000000000000   -0.000134052388603    0.000184402480954   -0.000066926877480
29    4.050000000000000    6.750000000000000    4.050000000000000   -0.000111398898298   -0.000064221792854    0.000201151095098
38    5.400000000000000    5.400000000000000    5.400000000000000    0.000067592598498    0.000237313099205    0.000221407040954
43    6.750000000000000    4.050000000000000    4.050000000000000    0.000167681078892   -0.000407524232287   -0.000437548267655
46    6.750000000000000    6.750000000000000    6.750000000000000    0.000092993606813    0.000245318195084    0.000237314874539
60    9.449999999999999    4.050000000000000    6.750000000000000   -0.001582101220265    0.001713771838695   -0.001368843019009
61    9.449999999999999    6.750000000000000    4.050000000000000   -0.001611282466911   -0.001399307977408    0.001743808388710
15    1.350000000000000    9.449999999999999    4.050000000000000   -0.006700883619487   -0.006274444982409    0.009026708081365
24    2.700000000000000    8.100000000000000    5.400000000000000   -0.001496982760727    0.001619194168597   -0.001423220150173
32    4.050000000000000    9.449999999999999    6.750000000000000   -0.002135998802260    0.001601105090231    0.002405233914033
47    6.750000000000000    9.449999999999999    4.050000000000000   -0.001760995131917   -0.001817530253902    0.002803429029882
56    8.100000000000000    8.100000000000000    5.400000000000000   -0.000109264365165    0.000184319535038    0.000019111037545
64    9.449999999999999    9.449999999999999    6.750000000000000    0.002698148135096   -0.003522998653352   -0.001252806279808
4    0.000000000000000    2.700000000000000    8.100000000000000   -0.006312483921647   -0.005580583121628    0.008041245862842
18    2.700000000000000    0.000000000000000    8.100000000000000    0.019270315766335    0.013097570277750   -0.015453988686204
26    4.050000000000000    1.350000000000000    9.449999999999999    0.011340137571096   -0.010525785386562   -0.015339795500040
36    5.400000000000000    2.700000000000000    8.100000000000000   -0.001835023285821   -0.001787913613953    0.002747094724327
50    8.100000000000000    0.000000000000000    8.100000000000000    0.012821527197957    0.007492707576603    0.012058502994478
58    9.449999999999999    1.350000000000000    9.449999999999999    0.085493944585323   -0.076476439833641    0.081984654068947
12    1.350000000000000    4.050000000000000    9.449999999999999   -0.006710691843182    0.009044054895639   -0.006298698484898
22    2.700000000000000    5.400000000000000    8.100000000000000   -0.001500104553998   -0.001434478210285    0.001613780506887
30    4.050000000000000    6.750000000000000    9.449999999999999   -0.002129049040377    0.002412196714431    0.001571818604134
44    6.750000000000000    4.050000000000000    9.449999999999999   -0.001768503105268    0.002806794364005   -0.001830847118981
54    8.100000000000000    5.400000000000000    8.100000000000000   -0.000113330170279    0.000004451212590    0.000192411098396
62    9.449999999999999    6.750000000000000    9.449999999999999    0.002717131981626   -0.001267372979783   -0.003516611410305
8    0.000000000000000    8.100000000000000    8.100000000000000   -0.011122356168926   -0.011339651420712   -0.011342473328114
16    1.350000000000000    9.449999999999999    9.449999999999999    0.060155183076859   -0.061406467109919   -0.061428066343069
40    5.400000000000000    8.100000000000000    8.100000000000000    0.000289835443255   -0.000414595007896   -0.000403784215450
48    6.750000000000000    9.449999999999999    9.449999999999999   -0.004929478280246   -0.000650814617984   -0.000695104594342
