ITEM: TIMESTEP
0
ITEM: NUMBER OF ATOMS
64
ITEM: BOX BOUNDS xy xz yz pp pp pp
0.0000000000000000e+00 1.0800000000000001e+01 0.0000000000000000e+00
0.0000000000000000e+00 1.0800000000000001e+01 0.0000000000000000e+00
0.0000000000000000e+00 1.0800000000000001e+01 0.0000000000000000e+00
ITEM: ATOMS id xu yu zu fx fy fz
1    0.040000000000000    0.000000000000000    0.000000000000000   -0.280598491430283    0.072931580245495    0.071811169385910
3    0.000000000000000    2.700000000000000    2.700000000000000   -0.081606239080429    0.079905077815056    0.081535220146179
9    1.350000000000000    1.390000000000000    1.350000000000000    0.068225674331188   -0.284581720829010    0.067291066050529
17    2.700000000000000    0.000000000000000    2.700000000000000   -0.052696339786053    0.062224671244621   -0.052643723785877
19    2.700000000000000    2.700000000000000    0.000000000000000    0.087997421622276    0.086417779326439   -0.081505961716175
33    5.400000000000000    0.000000000000000    0.000000000000000   -0.000478727743030    0.002978175878525   -0.003501487895846
35    5.400000000000000    2.700000000000000    2.700000000000000   -0.000532462901901    0.003268012776971   -0.003275478025898
41    6.750000000000000    1.350000000000000    1.350000000000000   -0.004968642722815    0.001533968839794    0.000885080429725
49    8.100000000000000    0.000000000000000    2.700000000000000    0.013668619096279   -0.006108021829277   -0.011113433167338
51    8.100000000000000    2.700000000000000    0.000000000000000    0.015450688079000   -0.011533319950104   -0.005672755651176
5    0.000000000000000    5.400000000000000    0.000000000000000    0.001525685423985   -0.004832053557038    0.000821885303594
13    1.350000000000000    6.750000000000000    1.350000000000000    0.003081624861807   -0.000819388660602   -0.003436483675614
21    2.700000000000000    5.400000000000000    2.700000000000000   -0.001117276144214   -0.004951506853104   -0.000898105441593
27    4.050000000000000    4.050000000000000    1.350000000000000    0.014310069382191    0.013647438958287    0.008129161782563
37    5.400000000000000    5.400000000000000    0.000000000000000   -0.001509633613750   -0.001868869061582    0.001547699910589
45    6.750000000000000    6.750000000000000    1.350000000000000   -0.001918859081343   -0.001647616387345    0.001631464227103
53    8.100000000000000    5.400000000000000    2.700000000000000    0.002243702299893   -0.002123073674738   -0.001557308947667
59    9.449999999999999    4.050000000000000    1.350000000000000   -0.013218344189227    0.017223164439201   -0.006221502553672
7    0.000000000000000    8.100000000000000    2.700000000000000   -0.010119879618287    0.003996156156063   -0.008093599230051
23    2.700000000000000    8.100000000000000    0.000000000000000    0.017120763659477   -0.021259769797325    0.008719703182578
31    4.050000000000000    9.449999999999999    1.350000000000000   -0.019321519881487    0.015535492449999    0.008265510201454
39    5.400000000000000    8.100000000000000    2.700000000000000    0.002632206305861   -0.001737701240927    0.001433011959307
55    8.100000000000000    8.100000000000000    0.000000000000000    0.012124441564083    0.012675738893449    0.007439306005836
63    9.449999999999999    9.449999999999999    1.350000000000000    0.085580930113792    0.082336038351059   -0.076730847358704
2    0.000000000000000    0.000000000000000    5.400000000000000   -0.002807564334944    0.002960263751447    0.001032220432535
10    1.350000000000000    1.350000000000000    6.750000000000000    0.003092310391366   -0.002790512749925    0.000725605408661
20    2.700000000000000    2.700000000000000    5.400000000000000   -0.003690440440550    0.003063895739615   -0.000849038129672
25    4.050000000000000    1.350000000000000    4.050000000000000   -0.010934093035758   -0.010817175731063   -0.011575652286410
34    5.400000000000000    0.000000000000000    5.400000000000000    0.002666244981810   -0.001343844109215    0.001680076704361
42    6.750000000000000    1.350000000000000    6.750000000000000   -0.001935398904607    0.001066736993380   -0.002576940227300
52    8.100000000000000    2.700000000000000    5.400000000000000    0.001272578258067   -0.001211151480675   -0.001762933214195
57    9.449999999999999    1.350000000000000    4.050000000000000   -0.006769676692784   -0.006339827552438    0.010765915736556
6    0.000000000000000    5.400000000000000    5.400000000000000    0.001014761626720   -0.001889087259769   -0.002540792338550
11    1.350000000000000    4.050000000000000    4.050000000000000    0.008436298929155    0.014665020629764    0.014681609347463
14    1.350000000000000    6.750000000000000    6.750000000000000   -0.001266125706024    0.002512752776965    0.001549186650664
28    4.050000000000000    4.050000000000000    6.750000000000000    0.000090339512099   -0.000042672269046   -0.000063458515797
29    4.050000000000000    6.750000000000000    4.050000000000000   -0.000060252205003   -0.000190663442481    0.000025052315323
38    5.400000000000000    5.400000000000000    5.400000000000000    0.000159749761224    0.000144230201840    0.000220941379666
43    6.750000000000000    4.050000000000000    4.050000000000000    0.000299470237223   -0.000461208866909   -0.000266225950327
46    6.750000000000000    6.750000000000000    6.750000000000000    0.000158560811542    0.000180818169611    0.000237569940509
60    9.449999999999999    4.050000000000000    6.750000000000000   -0.001280299969949    0.001410915632732   -0.001772020594217
61    9.449999999999999    6.750000000000000    4.050000000000000   -0.001529121189378   -0.001486274530180    0.001883766264655
15    1.350000000000000    9.449999999999999    4.050000000000000    0.012187272310257    0.018132224678993   -0.015249245800078
24    2.700000000000000    8.100000000000000    5.400000000000000    0.001370330341160   -0.001861431286670    0.002732021966949
32    4.050000000000000    9.449999999999999    6.750000000000000   -0.001839879201725    0.001311480533332    0.002809284720570
47    6.750000000000000    9.449999999999999    4.050000000000000   -0.001672438578680   -0.001891004736535    0.002653752919286
56    8.100000000000000    8.100000000000000    5.400000000000000   -0.000030574825360    0.000108206033474    0.000014925353753
64    9.449999999999999    9.449999999999999    6.750000000000000    0.002915594261140   -0.003751150798053   -0.001260293531232
4    0.000000000000000    2.700000000000000    8.100000000000000   -0.005828186869621   -0.005930074490607    0.009748642332852
18    2.700000000000000    0.000000000000000    8.100000000000000    0.019712004810572    0.012640221975744   -0.017248034477234
26    4.050000000000000    1.350000000000000    9.449999999999999    0.004992990288883   -0.010667835362256   -0.008979897946119
36    5.400000000000000    2.700000000000000    8.100000000000000   -0.001512125367299   -0.001470693852752    0.001769358292222
50    8.100000000000000    0.000000000000000    8.100000000000000    0.013065676204860    0.007757400162518    0.012976186349988
58    9.449999999999999    1.350000000000000    9.449999999999999    0.080056905746460   -0.076865911483765    0.076646000146866
12    1.350000000000000    4.050000000000000    9.449999999999999   -0.006627690047026    0.015511604025960   -0.012765594758093
22    2.700000000000000    5.400000000000000    8.100000000000000   -0.001825297251344   -0.001758761703968    0.002600610256195
30    4.050000000000000    6.750000000000000    9.449999999999999   -0.001687937648967    0.002727538347244    0.001359880086966
44    6.750000000000000    4.050000000000000    9.449999999999999   -0.002084506908432    0.002359127160162   -0.001607267651707
54    8.100000000000000    5.400000000000000    8.100000000000000   -0.000488537363708    0.000363047030987   -0.000259167834884
62    9.449999999999999    6.750000000000000    9.449999999999999    0.003184898523614   -0.001002226024866   -0.003269183216617
8    0.000000000000000    8.100000000000000    8.100000000000000   -0.011412849649787   -0.011648829095066   -0.012323304079473
16    1.350000000000000    9.449999999999999    9.449999999999999    0.060009080916643   -0.055536750704050   -0.055705916136503
40    5.400000000000000    8.100000000000000    8.100000000000000   -0.000074065799708   -0.000037414021790    0.000052876770496
48    6.750000000000000    9.449999999999999    9.449999999999999   -0.005203322507441   -0.001131226075813   -0.000950111832935
