ITEM: TIMESTEP
0
ITEM: NUMBER OF ATOMS
64
ITEM: BOX BOUNDS xy xz yz pp pp pp
0.0000000000000000e+00 1.0800000000000001e+01 0.0000000000000000e+00
0.0000000000000000e+00 1.0800000000000001e+01 0.0000000000000000e+00
0.0000000000000000e+00 1.0800000000000001e+01 0.0000000000000000e+00
ITEM: ATOMS id xu yu zu fx fy fz
1    0.040000000000000    0.000000000000000    0.000000000000000   -0.341596662998199    0.015637516975403    0.015343330800533
3    0.000000000000000    2.740000000000000    2.700000000000000   -0.009163882583380   -0.342365622520447    0.009094399400055
9    1.350000000000000    1.350000000000000    1.350000000000000    0.001459124963731    0.141714960336685    0.138818025588989
17    2.700000000000000    0.000000000000000    2.700000000000000    0.001679753419012    0.004931520204991    0.007179149426520
19    2.700000000000000    2.700000000000000    0.000000000000000    0.007237742654979    0.007020247168839   -0.000740104005672
33    5.400000000000000    0.000000000000000    0.000000000000000   -0.001258257776499   -0.000274458900094   -0.000051103532314
35    5.400000000000000    2.700000000000000    2.700000000000000    0.000169204169651    0.000824113609269    0.000192224630155
41    6.750000000000000    1.350000000000000    1.350000000000000   -0.006220952142030    0.003863055026159   -0.002576687373221
49    8.100000000000000    0.000000000000000    2.700000000000000    0.029197454452515    0.005603080615401   -0.005462885834277
51    8.100000000000000    2.700000000000000    0.000000000000000    0.004872856661677   -0.024394512176514   -0.018889110535383
5    0.000000000000000    5.400000000000000    0.000000000000000    0.010389861650765    0.016244150698185   -0.016290161758661
13    1.350000000000000    6.750000000000000    1.350000000000000    0.002280436921865   -0.004123965743929   -0.002596887992695
21    2.700000000000000    5.400000000000000    2.700000000000000    0.015999779105186    0.016120899468660   -0.009769433178008
27    4.050000000000000    4.050000000000000    1.350000000000000   -0.002530395053327    0.000545376969967    0.001861103228293
37    5.400000000000000    5.400000000000000    0.000000000000000    0.001172105083242   -0.000251280260272   -0.000002962013241
45    6.750000000000000    6.750000000000000    1.350000000000000    0.000639775185846   -0.004505243152380    0.003221969353035
53    8.100000000000000    5.400000000000000    2.700000000000000   -0.016537550836802    0.015994517132640    0.009741296060383
59    9.449999999999999    4.050000000000000    1.350000000000000   -0.068629398941994    0.071399748325348   -0.068069055676460
7    0.000000000000000    8.100000000000000    2.700000000000000   -0.009171950630844    0.007487676106393   -0.008969549089670
23    2.700000000000000    8.100000000000000    0.000000000000000    0.016030374914408   -0.016216654330492    0.009893994778395
31    4.050000000000000    9.449999999999999    1.350000000000000   -0.002134177600965   -0.001052625477314   -0.002434621797875
39    5.400000000000000    8.100000000000000    2.700000000000000    0.000038559024688    0.001186637673527   -0.000183332129382
55    8.100000000000000    8.100000000000000    0.000000000000000    0.014488642103970    0.014706468209624    0.008835401386023
63    9.449999999999999    9.449999999999999    1.350000000000000    0.069553598761559    0.062320582568645   -0.068287685513496
2    0.000000000000000    0.000000000000000    5.400000000000000   -0.008398160338402    0.014633263461292   -0.014549691230059
10    1.350000000000000    1.350000000000000    6.750000000000000    0.006616499274969   -0.000470205617603    0.001754050259478
20    2.700000000000000    2.700000000000000    5.400000000000000    0.009573161602020   -0.009885736741126    0.009651817381382
25    4.050000000000000    1.350000000000000    4.050000000000000   -0.000798398512416    0.001397530781105    0.000944926752709
34    5.400000000000000    0.000000000000000    5.400000000000000    0.000764499884099   -0.000266681396170    0.000056545715779
42    6.750000000000000    1.350000000000000    6.750000000000000   -0.003568541491404    0.000260414468357   -0.000921025290154
52    8.100000000000000    2.700000000000000    5.400000000000000    0.008715813979506   -0.009179057553411   -0.009193150326610
57    9.449999999999999    1.350000000000000    4.050000000000000    0.070487201213837    0.074168577790260   -0.066426113247871
6    0.000000000000000    5.400000000000000    5.400000000000000   -0.010289556346834    0.016224041581154    0.016253916546702
11    1.350000000000000    4.050000000000000    4.050000000000000    0.070337325334549    0.068726964294910    0.070072948932648
14    1.350000000000000    6.750000000000000    6.750000000000000   -0.002846752293408   -0.000332395255100   -0.000980408396572
28    4.050000000000000    4.050000000000000    6.750000000000000   -0.001434869132936   -0.001040967996232   -0.001773697440512
29    4.050000000000000    6.750000000000000    4.050000000000000   -0.002403225749731   -0.002102384809405   -0.001353765954264
38    5.400000000000000    5.400000000000000    5.400000000000000   -0.000209379009902   -0.000237616710365   -0.000025031156838
43    6.750000000000000    4.050000000000000    4.050000000000000    0.000763838179410    0.002918390091509   -0.003673589788377
46    6.750000000000000    6.750000000000000    6.750000000000000   -0.000055791926570    0.000364787207218    0.000452429085271
60    9.449999999999999    4.050000000000000    6.750000000000000    0.002119388896972    0.004781348165125   -0.002228016033769
61    9.449999999999999    6.750000000000000    4.050000000000000   -0.000527432188392   -0.006364954169840    0.000866777496412
15    1.350000000000000    9.449999999999999    4.050000000000000    0.004030049778521   -0.001638945424929    0.000293922988931
24    2.700000000000000    8.100000000000000    5.400000000000000   -0.000056943856180    0.000235443643760    0.000324402353726
32    4.050000000000000    9.449999999999999    6.750000000000000   -0.002135650720447    0.001725496142171    0.002330230548978
47    6.750000000000000    9.449999999999999    4.050000000000000   -0.004500777460635   -0.003546095453203    0.004213484004140
56    8.100000000000000    8.100000000000000    5.400000000000000   -0.000055007927585   -0.000004469242413    0.000035857025068
64    9.449999999999999    9.449999999999999    6.750000000000000    0.001324706594460   -0.005435119383037    0.001477603684179
4    0.000000000000000    2.700000000000000    8.100000000000000   -0.009242043830454   -0.008330075070262    0.008996719494462
18    2.700000000000000    0.000000000000000    8.100000000000000    0.016296885907650    0.009447215124965   -0.016473991796374
26    4.050000000000000    1.350000000000000    9.449999999999999   -0.003090950194746   -0.002174359746277   -0.000835733138956
36    5.400000000000000    2.700000000000000    8.100000000000000    0.000046223343816   -0.000749657978304    0.000220184680074
50    8.100000000000000    0.000000000000000    8.100000000000000    0.014621227048337    0.008789557963610    0.014793819747865
58    9.449999999999999    1.350000000000000    9.449999999999999    0.067054107785225   -0.064465545117855    0.066320672631264
12    1.350000000000000    4.050000000000000    9.449999999999999   -0.000330734241288    0.002516076900065    0.004040188156068
22    2.700000000000000    5.400000000000000    8.100000000000000   -0.000278376042843   -0.000134040310513   -0.000086115178419
30    4.050000000000000    6.750000000000000    9.449999999999999   -0.001671128906310    0.002696734853089    0.001320800045505
44    6.750000000000000    4.050000000000000    9.449999999999999   -0.000362975377357    0.001350556034595   -0.000086020474555
54    8.100000000000000    5.400000000000000    8.100000000000000   -0.000237731233938   -0.000024548629881    0.000110946799396
62    9.449999999999999    6.750000000000000    9.449999999999999    0.004544818773866   -0.003017819952220   -0.000960193399806
8    0.000000000000000    8.100000000000000    8.100000000000000   -0.009856468066573   -0.008787157014012   -0.009776834398508
16    1.350000000000000    9.449999999999999    9.449999999999999    0.071782946586609   -0.073463618755341   -0.074156396090984
40    5.400000000000000    8.100000000000000    8.100000000000000    0.000155324232765   -0.000260990113020   -0.000185266137123
48    6.750000000000000    9.449999999999999    9.449999999999999   -0.004849224351346   -0.000740148127079   -0.000704407575540
