ITEM: TIMESTEP
0
ITEM: NUMBER OF ATOMS
64
ITEM: BOX BOUNDS xy xz yz pp pp pp
0.0000000000000000e+00 1.0800000000000001e+01 0.0000000000000000e+00
0.0000000000000000e+00 1.0800000000000001e+01 0.0000000000000000e+00
0.0000000000000000e+00 1.0800000000000001e+01 0.0000000000000000e+00
ITEM: ATOMS id xu yu zu fx fy fz
3    0.000000000000000    2.700000000000000    2.700000000000000   -0.062023416161537    0.061144083738327    0.062261205166578
9    1.350000000000000    1.390000000000000    1.350000000000000   -0.073847874999046   -0.419600546360016   -0.068645879626274
17    2.700000000000000    0.000000000000000    2.700000000000000   -0.080690637230873    0.078323826193810   -0.080600984394550
19    2.700000000000000    2.700000000000000    0.000000000000000    0.056562632322311    0.055536553263664   -0.062227655202150
33    5.400000000000000    0.000000000000000    0.000000000000000    0.002723339479417    0.002909963950515   -0.003552692010999
35    5.400000000000000    2.700000000000000    2.700000000000000   -0.000526306452230    0.002922840882093   -0.003586199134588
41    6.750000000000000    1.350000000000000    1.350000000000000    0.004588040988892   -0.000140334654134   -0.000756101391744
1   -0.039999999999999    0.000000000000000    0.000000000000000    0.419595718383789    0.073871150612831    0.068597152829170
49    8.100000000000000    0.000000000000000    2.700000000000000   -0.017587486654520    0.012702103704214    0.019887398928404
51    8.100000000000000    2.700000000000000    0.000000000000000   -0.015839003026485    0.019528660923243    0.013148503378034
5    0.000000000000000    5.400000000000000    0.000000000000000    0.000118505064165   -0.004569455981255    0.000724880432244
13    1.350000000000000    6.750000000000000    1.350000000000000   -0.002920198254287   -0.002676208969206    0.003546102903783
21    2.700000000000000    5.400000000000000    2.700000000000000   -0.000517366454005   -0.004320578649640   -0.000745226279832
27    4.050000000000000    4.050000000000000    1.350000000000000    0.018238421529531    0.018882323056459    0.011373009532690
37    5.400000000000000    5.400000000000000    0.000000000000000   -0.003506357083097   -0.001884309574962    0.001541895093396
45    6.750000000000000    6.750000000000000    1.350000000000000    0.001900332397781    0.003518570680171   -0.001550260232762
53    8.100000000000000    5.400000000000000    2.700000000000000    0.002791901351884   -0.001740660751238   -0.001628427766263
59    9.449999999999999    4.050000000000000    1.350000000000000   -0.019533243030310    0.015855770558119   -0.013170295394957
7    0.000000000000000    8.100000000000000    2.700000000000000    0.009015453048050   -0.015036945231259    0.010760718956590
23    2.700000000000000    8.100000000000000    0.000000000000000   -0.013711561448872    0.009351551532745   -0.009971286170185
31    4.050000000000000    9.449999999999999    1.350000000000000   -0.009385053999722    0.013715025037527    0.009953882545233
39    5.400000000000000    8.100000000000000    2.700000000000000    0.002420422388241   -0.002109287539497    0.001836983487010
55    8.100000000000000    8.100000000000000    0.000000000000000   -0.018889300525188   -0.018270820379257   -0.011445732787251
63    9.449999999999999    9.449999999999999    1.350000000000000   -0.055539861321449   -0.056562699377537    0.062135830521584
2    0.000000000000000    0.000000000000000    5.400000000000000   -0.004176941700280    0.002883320208639    0.001237147836946
10    1.350000000000000    1.350000000000000    6.750000000000000   -0.002908719936386    0.004186053760350   -0.001184201799333
20    2.700000000000000    2.700000000000000    5.400000000000000   -0.003114075632766    0.003163769841194   -0.000268354342552
25    4.050000000000000    1.350000000000000    4.050000000000000   -0.007031011395156   -0.007548782043159   -0.006322382949293
34    5.400000000000000    0.000000000000000    5.400000000000000    0.000642805302050   -0.001355821965262    0.001653268816881
42    6.750000000000000    1.350000000000000    6.750000000000000    0.001886926707812   -0.002130739856511    0.002571475459263
52    8.100000000000000    2.700000000000000    5.400000000000000    0.001802924787626   -0.001262309029698   -0.001361189759336
57    9.449999999999999    1.350000000000000    4.050000000000000   -0.012984271161258   -0.013330919668078    0.009347688406706
6    0.000000000000000    5.400000000000000    5.400000000000000    0.002098683500662   -0.001887939870358   -0.002540295943618
11    1.350000000000000    4.050000000000000    4.050000000000000    0.011117381043732    0.017971577122808    0.018031373620033
14    1.350000000000000    6.750000000000000    6.750000000000000    0.001327791134827   -0.000617432524450   -0.001620177412406
28    4.050000000000000    4.050000000000000    6.750000000000000   -0.000186426768778   -0.000507366959937    0.000400633842219
29    4.050000000000000    6.750000000000000    4.050000000000000   -0.000348172703525    0.000307512382278   -0.000446695426945
38    5.400000000000000    5.400000000000000    5.400000000000000    0.000290868803859    0.000141715630889    0.000226185657084
43    6.750000000000000    4.050000000000000    4.050000000000000    0.000025044195354   -0.000015917001292    0.000184326374438
46    6.750000000000000    6.750000000000000    6.750000000000000   -0.000120955286548   -0.000279863103060   -0.000221198861254
60    9.449999999999999    4.050000000000000    6.750000000000000    0.001285486621782   -0.001802786835469    0.001422517234460
61    9.449999999999999    6.750000000000000    4.050000000000000    0.001045893877745    0.001709230244160   -0.001325846067630
15    1.350000000000000    9.449999999999999    4.050000000000000    0.006088861264288    0.011118736118078   -0.013289172202349
24    2.700000000000000    8.100000000000000    5.400000000000000    0.001889041624963   -0.001928693382069    0.002385114086792
32    4.050000000000000    9.449999999999999    6.750000000000000    0.001941618276760   -0.001889880280942   -0.002355566015467
47    6.750000000000000    9.449999999999999    4.050000000000000    0.002098947763443    0.001317998860031   -0.002496333327144
56    8.100000000000000    8.100000000000000    5.400000000000000    0.000504237134010    0.000179246359039   -0.000381057529012
64    9.449999999999999    9.449999999999999    6.750000000000000   -0.003189943265170    0.003133697202429    0.000289811985567
4    0.000000000000000    2.700000000000000    8.100000000000000    0.013302048668265    0.012981135398149   -0.009357146918774
18    2.700000000000000    0.000000000000000    8.100000000000000   -0.011115439236164   -0.006101372651756    0.013290569186211
26    4.050000000000000    1.350000000000000    9.449999999999999    0.014981887303293   -0.008937690407038   -0.010775512084365
36    5.400000000000000    2.700000000000000    8.100000000000000   -0.001700152060948   -0.001058634719811    0.001379951369017
50    8.100000000000000    0.000000000000000    8.100000000000000   -0.017969891428947   -0.011143658310175   -0.017989452928305
58    9.449999999999999    1.350000000000000    9.449999999999999   -0.061130270361900    0.062012396752834   -0.062286186963320
12    1.350000000000000    4.050000000000000    9.449999999999999   -0.012675998732448    0.017543297261000   -0.019874632358551
22    2.700000000000000    5.400000000000000    8.100000000000000   -0.001319197937846   -0.002111050300300    0.002537989523262
30    4.050000000000000    6.750000000000000    9.449999999999999    0.002086878521368   -0.002387880813330   -0.001845611026511
44    6.750000000000000    4.050000000000000    9.449999999999999    0.001732437056489   -0.002810223726556    0.001586783560924
54    8.100000000000000    5.400000000000000    8.100000000000000    0.000039203092456   -0.000036772245949   -0.000184379547136
62    9.449999999999999    6.750000000000000    9.449999999999999   -0.002930036280304    0.000553409336135    0.003605781123042
8    0.000000000000000    8.100000000000000    8.100000000000000    0.007554522715509    0.006999809294939    0.006327322684228
16    1.350000000000000    9.449999999999999    9.449999999999999   -0.078342914581299    0.080704256892204    0.080597914755344
40    5.400000000000000    8.100000000000000    8.100000000000000   -0.000311233743560    0.000365086831152    0.000456262379885
48    6.750000000000000    9.449999999999999    9.449999999999999    0.004375065676868    0.000522915623151    0.000706395483576
