ITEM: TIMESTEP
0
ITEM: NUMBER OF ATOMS
64
ITEM: BOX BOUNDS xy xz yz pp pp pp
0.0000000000000000e+00 1.0800000000000001e+01 0.0000000000000000e+00
0.0000000000000000e+00 1.0800000000000001e+01 0.0000000000000000e+00
0.0000000000000000e+00 1.0800000000000001e+01 0.0000000000000000e+00
ITEM: ATOMS id xu yu zu fx fy fz
1    0.040000000000000    0.000000000000000    0.000000000000000   -0.362093597650528   -0.010621138848364   -0.010650635696948
3    0.040000000000000    2.700000000000000    2.700000000000000   -0.362140536308289    0.010623991489410    0.010616361163557
9    1.350000000000000    1.350000000000000    1.350000000000000    0.141279622912407   -0.000028180453228    0.000000295869540
17    2.700000000000000    0.000000000000000    2.700000000000000    0.032560162246227   -0.026096768677235    0.026075277477503
19    2.700000000000000    2.700000000000000    0.000000000000000    0.032559525221586    0.026070218533278   -0.026098104193807
33    5.400000000000000    0.000000000000000    0.000000000000000   -0.001317493617535   -0.000194253399968   -0.000197980552912
35    5.400000000000000    2.700000000000000    2.700000000000000   -0.001310272258706    0.000165289005963    0.000189784448594
41    6.750000000000000    1.350000000000000    1.350000000000000   -0.010185407474637   -0.000014415854821    0.000003975757863
49    8.100000000000000    0.000000000000000    2.700000000000000    0.029313011094928    0.005486401729286   -0.005472771823406
51    8.100000000000000    2.700000000000000    0.000000000000000    0.029338397085667   -0.005487722344697    0.005454968661070
5    0.000000000000000    5.400000000000000    0.000000000000000   -0.008561228401959   -0.008971896953881    0.008952107280493
13    1.350000000000000    6.750000000000000    1.350000000000000    0.006230401806533   -0.000009661598597    0.000011803378584
21    2.700000000000000    5.400000000000000    2.700000000000000    0.015981324017048    0.016152765601873   -0.009766883216798
27    4.050000000000000    4.050000000000000    1.350000000000000   -0.006615070626140   -0.003374103689566   -0.000757139525376
37    5.400000000000000    5.400000000000000    0.000000000000000    0.001073572319001   -0.000192750943825    0.000168472324731
45    6.750000000000000    6.750000000000000    1.350000000000000   -0.003833647351712   -0.000024689390557    0.000022391526727
53    8.100000000000000    5.400000000000000    2.700000000000000    0.014374950900674   -0.014783127233386   -0.009043549187481
59    9.449999999999999    4.050000000000000    1.350000000000000    0.073652625083923   -0.066409751772881    0.071045666933060
7    0.000000000000000    8.100000000000000    2.700000000000000   -0.008526409044862    0.008985741063952   -0.008978106081486
23    2.700000000000000    8.100000000000000    0.000000000000000    0.015980601310730   -0.016111489385366    0.009715376421809
31    4.050000000000000    9.449999999999999    1.350000000000000   -0.006605534814298    0.003391908714548    0.000766732613556
39    5.400000000000000    8.100000000000000    2.700000000000000    0.001031168736517    0.000190020655282   -0.000177618232556
55    8.100000000000000    8.100000000000000    0.000000000000000    0.014410507865250    0.014773208647966    0.008983052335680
63    9.449999999999999    9.449999999999999    1.350000000000000    0.073656037449837    0.066415376961231   -0.071044698357582
2    0.000000000000000    0.000000000000000    5.400000000000000   -0.008554220199585    0.008963320404291   -0.008979738689959
10    1.350000000000000    1.350000000000000    6.750000000000000    0.006238725036383   -0.000001689040801    0.000027312984457
20    2.700000000000000    2.700000000000000    5.400000000000000    0.016015384346247   -0.009766720235348    0.016128038987517
25    4.050000000000000    1.350000000000000    4.050000000000000   -0.006620149593800   -0.000748091493733   -0.003360611619428
34    5.400000000000000    0.000000000000000    5.400000000000000    0.001050371676683    0.000199260393856   -0.000180929899216
42    6.750000000000000    1.350000000000000    6.750000000000000   -0.003847932443023   -0.000015037599951    0.000024043867597
52    8.100000000000000    2.700000000000000    5.400000000000000    0.014386768452823   -0.009018002077937   -0.014745476655662
57    9.449999999999999    1.350000000000000    4.050000000000000    0.073675274848938    0.071019798517227   -0.066435299813747
6    0.000000000000000    5.400000000000000    5.400000000000000   -0.010415404103696    0.009789471514523    0.009797982871532
11    1.350000000000000    4.050000000000000    4.050000000000000    0.069004669785500    0.070081837475300    0.070094764232635
14    1.350000000000000    6.750000000000000    6.750000000000000   -0.002521959599108    0.000002446613507    0.000013528566342
28    4.050000000000000    4.050000000000000    6.750000000000000   -0.001768993446603   -0.001373190898448   -0.002760911593214
29    4.050000000000000    6.750000000000000    4.050000000000000   -0.001746449852362   -0.002758384682238   -0.001356831984594
38    5.400000000000000    5.400000000000000    5.400000000000000    0.000106360763311    0.000208655372262    0.000192919746041
43    6.750000000000000    4.050000000000000    4.050000000000000   -0.004935515113175    0.000710827298462    0.000681248493493
46    6.750000000000000    6.750000000000000    6.750000000000000    0.000318942242302    0.000003870838555   -0.000003628258128
60    9.449999999999999    4.050000000000000    6.750000000000000    0.001643222058192    0.005165324546397   -0.000497781264130
61    9.449999999999999    6.750000000000000    4.050000000000000    0.001615267712623   -0.000527314026840    0.005194647703320
15    1.350000000000000    9.449999999999999    4.050000000000000    0.006239568814635    0.004043561872095   -0.004040835890919
24    2.700000000000000    8.100000000000000    5.400000000000000   -0.000497438944876   -0.000090988338343    0.000117041199701
32    4.050000000000000    9.449999999999999    6.750000000000000   -0.001781837549061    0.001356492983177    0.002786995377392
47    6.750000000000000    9.449999999999999    4.050000000000000   -0.003836153307930   -0.004219034686685    0.004214560147375
56    8.100000000000000    8.100000000000000    5.400000000000000   -0.000528629519977   -0.000280076928902    0.000285887450445
64    9.449999999999999    9.449999999999999    6.750000000000000    0.001613031025045   -0.005160541273654    0.000541222048923
4    0.000000000000000    2.700000000000000    8.100000000000000   -0.008587011136115   -0.008992685005069    0.008988051675260
18    2.700000000000000    0.000000000000000    8.100000000000000    0.015994673594832    0.009743979200721   -0.016095135360956
26    4.050000000000000    1.350000000000000    9.449999999999999   -0.006610901094973    0.000745401834138    0.003329791594297
36    5.400000000000000    2.700000000000000    8.100000000000000    0.001043621799909   -0.000210145488381    0.000213253748370
50    8.100000000000000    0.000000000000000    8.100000000000000    0.014387865550816    0.009009310975671    0.014781632460654
58    9.449999999999999    1.350000000000000    9.449999999999999    0.073657184839249   -0.071010246872902    0.066391006112099
12    1.350000000000000    4.050000000000000    9.449999999999999    0.006229214370251   -0.004023589193821    0.004019669257104
22    2.700000000000000    5.400000000000000    8.100000000000000   -0.000500403344631    0.000105521292426   -0.000096545540146
30    4.050000000000000    6.750000000000000    9.449999999999999   -0.001774852629751    0.002794101368636    0.001327409408987
44    6.750000000000000    4.050000000000000    9.449999999999999   -0.003843124490231    0.004218234680593   -0.004232493694872
54    8.100000000000000    5.400000000000000    8.100000000000000   -0.000532887759618    0.000271212513326   -0.000272384961136
62    9.449999999999999    6.750000000000000    9.449999999999999    0.001632274943404    0.000525998068042   -0.005154471844435
8    0.000000000000000    8.100000000000000    8.100000000000000   -0.010398222133517   -0.009782286360860   -0.009785514324903
16    1.350000000000000    9.449999999999999    9.449999999999999    0.069029442965984   -0.070063203573227   -0.070084914565086
40    5.400000000000000    8.100000000000000    8.100000000000000    0.000089721957920   -0.000196435488760   -0.000185669399798
48    6.750000000000000    9.449999999999999    9.449999999999999   -0.004922230727971   -0.000655900104903   -0.000700557022355
