# Structure data of Mg (2x2x2 conventional) 

16 atoms
1 atom types

0.0 6.4060554504 xlo xhi
0.0 5.5478063316 ylo yhi
0.0 10.2533817291 zlo zhi
-3.203028464 0.0 0.0 xy xz yz

Masses

1 24.305  # Mg

Atoms  # atomic

1 1 1.6015137843 0.9246344182 3.8450181484
2 1 1.6015137843 0.9246344182 8.971709013
3 1 -4.9573637595e-07 3.6985376672 3.8450181484
4 1 -4.9573637595e-07 3.6985376672 8.971709013
5 1 4.8045417017 0.9246344182 3.8450181484
6 1 4.8045417017 0.9246344182 8.971709013
7 1 3.2030274216 3.6985376672 3.8450181484
8 1 3.2030274216 3.6985376672 8.971709013
9 1 -2.430636461e-07 1.8492688308 1.2816727161
10 1 -2.430636461e-07 1.8492688308 6.4083635807
11 1 -1.6015145712 4.6231721631 1.2816727161
12 1 -1.6015145712 4.6231721631 6.4083635807
13 1 3.2030275782 1.8492688308 1.2816727161
14 1 3.2030275782 1.8492688308 6.4083635807
15 1 1.6015132501 4.6231721631 1.2816727161
16 1 1.6015132501 4.6231721631 6.4083635807
