# Structure data of Ag (2x2x2 conventional) 

32 atoms
1 atom types

0.0 8.3210964203 xlo xhi
0.0 8.3210964203 ylo yhi
0.0 8.3210964203 zlo zhi
0.000000    0.000000    0.000000   xy xz yz

Masses

1 107.8682  # Ag

Atoms  # atomic

1 1 0.0 0.0 0.0
2 1 0.0 0.0 4.1605482101
3 1 0.0 4.1605482101 0.0
4 1 0.0 4.1605482101 4.1605482101
5 1 4.1605482101 0.0 0.0
6 1 4.1605482101 0.0 4.1605482101
7 1 4.1605482101 4.1605482101 0.0
8 1 4.1605482101 4.1605482101 4.1605482101
9 1 0.0 2.0802741051 2.0802741051
10 1 0.0 2.0802741051 6.2408223152
11 1 0.0 6.2408223152 2.0802741051
12 1 0.0 6.2408223152 6.2408223152
13 1 4.1605482101 2.0802741051 2.0802741051
14 1 4.1605482101 2.0802741051 6.2408223152
15 1 4.1605482101 6.2408223152 2.0802741051
16 1 4.1605482101 6.2408223152 6.2408223152
17 1 2.0802741051 0.0 2.0802741051
18 1 2.0802741051 0.0 6.2408223152
19 1 2.0802741051 4.1605482101 2.0802741051
20 1 2.0802741051 4.1605482101 6.2408223152
21 1 6.2408223152 0.0 2.0802741051
22 1 6.2408223152 0.0 6.2408223152
23 1 6.2408223152 4.1605482101 2.0802741051
24 1 6.2408223152 4.1605482101 6.2408223152
25 1 2.0802741051 2.0802741051 0.0
26 1 2.0802741051 2.0802741051 4.1605482101
27 1 2.0802741051 6.2408223152 0.0
28 1 2.0802741051 6.2408223152 4.1605482101
29 1 6.2408223152 2.0802741051 0.0
30 1 6.2408223152 2.0802741051 4.1605482101
31 1 6.2408223152 6.2408223152 0.0
32 1 6.2408223152 6.2408223152 4.1605482101
