# Structure data of Pd (2x2x2 conventional) 

32 atoms
1 atom types

0.0 7.9141321182 xlo xhi
0.0 7.9141321182 ylo yhi
0.0 7.9141321182 zlo zhi
0.000000    0.000000    0.000000   xy xz yz

Masses

1 106.42  # Pd

Atoms  # atomic

1 1 0.0 0.0 0.0
2 1 0.0 0.0 3.9570660591
3 1 0.0 3.9570660591 0.0
4 1 0.0 3.9570660591 3.9570660591
5 1 3.9570660591 0.0 0.0
6 1 3.9570660591 0.0 3.9570660591
7 1 3.9570660591 3.9570660591 0.0
8 1 3.9570660591 3.9570660591 3.9570660591
9 1 0.0 1.9785330296 1.9785330296
10 1 0.0 1.9785330296 5.9355990887
11 1 0.0 5.9355990887 1.9785330296
12 1 0.0 5.9355990887 5.9355990887
13 1 3.9570660591 1.9785330296 1.9785330296
14 1 3.9570660591 1.9785330296 5.9355990887
15 1 3.9570660591 5.9355990887 1.9785330296
16 1 3.9570660591 5.9355990887 5.9355990887
17 1 1.9785330296 0.0 1.9785330296
18 1 1.9785330296 0.0 5.9355990887
19 1 1.9785330296 3.9570660591 1.9785330296
20 1 1.9785330296 3.9570660591 5.9355990887
21 1 5.9355990887 0.0 1.9785330296
22 1 5.9355990887 0.0 5.9355990887
23 1 5.9355990887 3.9570660591 1.9785330296
24 1 5.9355990887 3.9570660591 5.9355990887
25 1 1.9785330296 1.9785330296 0.0
26 1 1.9785330296 1.9785330296 3.9570660591
27 1 1.9785330296 5.9355990887 0.0
28 1 1.9785330296 5.9355990887 3.9570660591
29 1 5.9355990887 1.9785330296 0.0
30 1 5.9355990887 1.9785330296 3.9570660591
31 1 5.9355990887 5.9355990887 0.0
32 1 5.9355990887 5.9355990887 3.9570660591
