# Structure data of Al (2x2x2 conventional) 

32 atoms
1 atom types

0.0 8.0778598785 xlo xhi
0.0 8.0778598785 ylo yhi
0.0 8.0778598785 zlo zhi
0.000000    0.000000    0.000000   xy xz yz

Masses

1 26.981538  # Al

Atoms  # atomic

1 1 0.0 0.0 0.0
2 1 0.0 0.0 4.0389299392
3 1 0.0 4.0389299392 0.0
4 1 0.0 4.0389299392 4.0389299392
5 1 4.0389299392 0.0 0.0
6 1 4.0389299392 0.0 4.0389299392
7 1 4.0389299392 4.0389299392 0.0
8 1 4.0389299392 4.0389299392 4.0389299392
9 1 0.0 2.0194649696 2.0194649696
10 1 0.0 2.0194649696 6.0583949089
11 1 0.0 6.0583949089 2.0194649696
12 1 0.0 6.0583949089 6.0583949089
13 1 4.0389299392 2.0194649696 2.0194649696
14 1 4.0389299392 2.0194649696 6.0583949089
15 1 4.0389299392 6.0583949089 2.0194649696
16 1 4.0389299392 6.0583949089 6.0583949089
17 1 2.0194649696 0.0 2.0194649696
18 1 2.0194649696 0.0 6.0583949089
19 1 2.0194649696 4.0389299392 2.0194649696
20 1 2.0194649696 4.0389299392 6.0583949089
21 1 6.0583949089 0.0 2.0194649696
22 1 6.0583949089 0.0 6.0583949089
23 1 6.0583949089 4.0389299392 2.0194649696
24 1 6.0583949089 4.0389299392 6.0583949089
25 1 2.0194649696 2.0194649696 0.0
26 1 2.0194649696 2.0194649696 4.0389299392
27 1 2.0194649696 6.0583949089 0.0
28 1 2.0194649696 6.0583949089 4.0389299392
29 1 6.0583949089 2.0194649696 0.0
30 1 6.0583949089 2.0194649696 4.0389299392
31 1 6.0583949089 6.0583949089 0.0
32 1 6.0583949089 6.0583949089 4.0389299392
