# Structure data of Fe3CuS4, Space Group No.2 (2x2x2 conventional) 

96 atoms
3 atom types

0.0 10.7936477661 xlo xhi
0.0 10.7936477661 ylo yhi
0.0 10.7936477661 zlo zhi
0.000000    0.000000    0.000000   xy xz yz

Masses

1 55.845  # Fe
2 32.065  # S
3 63.546  # Cu

Atoms  # atomic

1 1 0.0 2.6984119415 2.6984119415
2 1 0.0 2.6984119415 8.0952358246
3 1 0.0 8.0952358246 2.6984119415
4 1 0.0 8.0952358246 8.0952358246
5 1 5.396823883 2.6984119415 2.6984119415
6 1 5.396823883 2.6984119415 8.0952358246
7 1 5.396823883 8.0952358246 2.6984119415
8 1 5.396823883 8.0952358246 8.0952358246
9 1 2.6984119415 2.6984119415 0.0
10 1 2.6984119415 2.6984119415 5.396823883
11 1 2.6984119415 8.0952358246 0.0
12 1 2.6984119415 8.0952358246 5.396823883
13 1 8.0952358246 2.6984119415 0.0
14 1 8.0952358246 2.6984119415 5.396823883
15 1 8.0952358246 8.0952358246 0.0
16 1 8.0952358246 8.0952358246 5.396823883
17 1 2.6984119415 0.0 2.6984119415
18 1 2.6984119415 0.0 8.0952358246
19 1 2.6984119415 5.396823883 2.6984119415
20 1 2.6984119415 5.396823883 8.0952358246
21 1 8.0952358246 0.0 2.6984119415
22 1 8.0952358246 0.0 8.0952358246
23 1 8.0952358246 5.396823883 2.6984119415
24 1 8.0952358246 5.396823883 8.0952358246
25 2 2.079827988 0.6185839535 4.7782400915
26 2 2.079827988 0.6185839535 10.1750639745
27 2 2.079827988 6.0154076746 4.7782400915
28 2 2.079827988 6.0154076746 10.1750639745
29 2 7.476652033 0.6185839535 4.7782400915
30 2 7.476652033 0.6185839535 10.1750639745
31 2 7.476652033 6.0154076746 4.7782400915
32 2 7.476652033 6.0154076746 10.1750639745
33 2 3.3169957331 4.7782400915 0.6185837916
34 2 3.3169957331 4.7782400915 6.0154076746
35 2 3.3169957331 10.1750639745 0.6185837916
36 2 3.3169957331 10.1750639745 6.0154076746
37 2 8.7138196161 4.7782400915 0.6185837916
38 2 8.7138196161 4.7782400915 6.0154076746
39 2 8.7138196161 10.1750639745 0.6185837916
40 2 8.7138196161 10.1750639745 6.0154076746
41 2 0.6185839535 4.7782400915 2.079827988
42 2 0.6185839535 4.7782400915 7.476652033
43 2 0.6185839535 10.1750639745 2.079827988
44 2 0.6185839535 10.1750639745 7.476652033
45 2 6.0154076746 4.7782400915 2.079827988
46 2 6.0154076746 4.7782400915 7.476652033
47 2 6.0154076746 10.1750639745 2.079827988
48 2 6.0154076746 10.1750639745 7.476652033
49 2 4.7782400915 0.6185837916 3.3169957331
50 2 4.7782400915 0.6185837916 8.7138196161
51 2 4.7782400915 6.0154076746 3.3169957331
52 2 4.7782400915 6.0154076746 8.7138196161
53 2 10.1750639745 0.6185837916 3.3169957331
54 2 10.1750639745 0.6185837916 8.7138196161
55 2 10.1750639745 6.0154076746 3.3169957331
56 2 10.1750639745 6.0154076746 8.7138196161
57 2 4.7782400915 2.079827988 0.6185839535
58 2 4.7782400915 2.079827988 6.0154076746
59 2 4.7782400915 7.476652033 0.6185839535
60 2 4.7782400915 7.476652033 6.0154076746
61 2 10.1750639745 2.079827988 0.6185839535
62 2 10.1750639745 2.079827988 6.0154076746
63 2 10.1750639745 7.476652033 0.6185839535
64 2 10.1750639745 7.476652033 6.0154076746
65 2 0.6185837916 3.3169957331 4.7782400915
66 2 0.6185837916 3.3169957331 10.1750639745
67 2 0.6185837916 8.7138196161 4.7782400915
68 2 0.6185837916 8.7138196161 10.1750639745
69 2 6.0154076746 3.3169957331 4.7782400915
70 2 6.0154076746 3.3169957331 10.1750639745
71 2 6.0154076746 8.7138196161 4.7782400915
72 2 6.0154076746 8.7138196161 10.1750639745
73 2 3.3169957331 3.3169957331 3.3169957331
74 2 3.3169957331 3.3169957331 8.7138196161
75 2 3.3169957331 8.7138196161 3.3169957331
76 2 3.3169957331 8.7138196161 8.7138196161
77 2 8.7138196161 3.3169957331 3.3169957331
78 2 8.7138196161 3.3169957331 8.7138196161
79 2 8.7138196161 8.7138196161 3.3169957331
80 2 8.7138196161 8.7138196161 8.7138196161
81 2 2.07982815 2.07982815 2.07982815
82 2 2.07982815 2.07982815 7.476652033
83 2 2.07982815 7.476652033 2.07982815
84 2 2.07982815 7.476652033 7.476652033
85 2 7.476652033 2.07982815 2.07982815
86 2 7.476652033 2.07982815 7.476652033
87 2 7.476652033 7.476652033 2.07982815
88 2 7.476652033 7.476652033 7.476652033
89 3 0.0 0.0 0.0
90 3 0.0 0.0 5.396823883
91 3 0.0 5.396823883 0.0
92 3 0.0 5.396823883 5.396823883
93 3 5.396823883 0.0 0.0
94 3 5.396823883 0.0 5.396823883
95 3 5.396823883 5.396823883 0.0
96 3 5.396823883 5.396823883 5.396823883
