# Structure data of Re (2x2x2 conventional) 

16 atoms
1 atom types

0.0 5.5620999336 xlo xhi
0.0 4.8169194706 ylo yhi
0.0 8.9942722321 zlo zhi
-2.7810506082 0.0 0.0 xy xz yz

Masses

1 186.207  # Re

Atoms  # atomic

1 1 1.3905249154 0.8028199375 3.372852087
2 1 1.3905249154 0.8028199375 7.8699882031
3 1 -4.3038106301e-07 3.211279745 3.372852087
4 1 -4.3038106301e-07 3.211279745 7.8699882031
5 1 4.1715750491 0.8028199375 3.372852087
6 1 4.1715750491 0.8028199375 7.8699882031
7 1 2.7810497033 3.211279745 3.372852087
8 1 2.7810497033 3.211279745 7.8699882031
9 1 -2.1101895642e-07 1.6056398701 1.124284029
10 1 -2.1101895642e-07 1.6056398701 5.6214201451
11 1 -1.3905255986 4.0140997499 1.124284029
12 1 -1.3905255986 4.0140997499 5.6214201451
13 1 2.7810498392 1.6056398701 1.124284029
14 1 2.7810498392 1.6056398701 5.6214201451
15 1 1.3905244517 4.0140997499 1.124284029
16 1 1.3905244517 4.0140997499 5.6214201451
