# Structure data of Eu (2x2x2 conventional) 

32 atoms
1 atom types

0.0 11.0330276489 xlo xhi
0.0 11.0330276489 ylo yhi
0.0 11.0330276489 zlo zhi
0.000000    0.000000    0.000000   xy xz yz

Masses

1 151.964  # Eu

Atoms  # atomic

1 1 0.0 0.0 0.0
2 1 0.0 0.0 5.5165138244
3 1 0.0 5.5165138244 0.0
4 1 0.0 5.5165138244 5.5165138244
5 1 5.5165138244 0.0 0.0
6 1 5.5165138244 0.0 5.5165138244
7 1 5.5165138244 5.5165138244 0.0
8 1 5.5165138244 5.5165138244 5.5165138244
9 1 0.0 2.7582569122 2.7582569122
10 1 0.0 2.7582569122 8.2747707367
11 1 0.0 8.2747707367 2.7582569122
12 1 0.0 8.2747707367 8.2747707367
13 1 5.5165138244 2.7582569122 2.7582569122
14 1 5.5165138244 2.7582569122 8.2747707367
15 1 5.5165138244 8.2747707367 2.7582569122
16 1 5.5165138244 8.2747707367 8.2747707367
17 1 2.7582569122 0.0 2.7582569122
18 1 2.7582569122 0.0 8.2747707367
19 1 2.7582569122 5.5165138244 2.7582569122
20 1 2.7582569122 5.5165138244 8.2747707367
21 1 8.2747707367 0.0 2.7582569122
22 1 8.2747707367 0.0 8.2747707367
23 1 8.2747707367 5.5165138244 2.7582569122
24 1 8.2747707367 5.5165138244 8.2747707367
25 1 2.7582569122 2.7582569122 0.0
26 1 2.7582569122 2.7582569122 5.5165138244
27 1 2.7582569122 8.2747707367 0.0
28 1 2.7582569122 8.2747707367 5.5165138244
29 1 8.2747707367 2.7582569122 0.0
30 1 8.2747707367 2.7582569122 5.5165138244
31 1 8.2747707367 8.2747707367 0.0
32 1 8.2747707367 8.2747707367 5.5165138244
