# Structure data of Fe2VAl (2x2x2 conventional) 

128 atoms
3 atom types

0.0 11.4153280258 xlo xhi
0.0 11.4153280258 ylo yhi
0.0 11.4153280258 zlo zhi
0.000000    0.000000    0.000000   xy xz yz

Masses

1 26.981538  # Al
2 50.9415  # V
3 55.845  # Fe

Atoms  # atomic

1 1 0.0 0.0 0.0
2 1 0.0 0.0 5.7076640129
3 1 0.0 5.7076640129 0.0
4 1 0.0 5.7076640129 5.7076640129
5 1 5.7076640129 0.0 0.0
6 1 5.7076640129 0.0 5.7076640129
7 1 5.7076640129 5.7076640129 0.0
8 1 5.7076640129 5.7076640129 5.7076640129
9 1 0.0 2.8538320064 2.8538320064
10 1 0.0 2.8538320064 8.5614960193
11 1 0.0 8.5614960193 2.8538320064
12 1 0.0 8.5614960193 8.5614960193
13 1 5.7076640129 2.8538320064 2.8538320064
14 1 5.7076640129 2.8538320064 8.5614960193
15 1 5.7076640129 8.5614960193 2.8538320064
16 1 5.7076640129 8.5614960193 8.5614960193
17 1 2.8538320064 0.0 2.8538320064
18 1 2.8538320064 0.0 8.5614960193
19 1 2.8538320064 5.7076640129 2.8538320064
20 1 2.8538320064 5.7076640129 8.5614960193
21 1 8.5614960193 0.0 2.8538320064
22 1 8.5614960193 0.0 8.5614960193
23 1 8.5614960193 5.7076640129 2.8538320064
24 1 8.5614960193 5.7076640129 8.5614960193
25 1 2.8538320064 2.8538320064 0.0
26 1 2.8538320064 2.8538320064 5.7076640129
27 1 2.8538320064 8.5614960193 0.0
28 1 2.8538320064 8.5614960193 5.7076640129
29 1 8.5614960193 2.8538320064 0.0
30 1 8.5614960193 2.8538320064 5.7076640129
31 1 8.5614960193 8.5614960193 0.0
32 1 8.5614960193 8.5614960193 5.7076640129
33 2 2.8538320064 0.0 0.0
34 2 2.8538320064 0.0 5.7076640129
35 2 2.8538320064 5.7076640129 0.0
36 2 2.8538320064 5.7076640129 5.7076640129
37 2 8.5614960193 0.0 0.0
38 2 8.5614960193 0.0 5.7076640129
39 2 8.5614960193 5.7076640129 0.0
40 2 8.5614960193 5.7076640129 5.7076640129
41 2 2.8538320064 2.8538320064 2.8538320064
42 2 2.8538320064 2.8538320064 8.5614960193
43 2 2.8538320064 8.5614960193 2.8538320064
44 2 2.8538320064 8.5614960193 8.5614960193
45 2 8.5614960193 2.8538320064 2.8538320064
46 2 8.5614960193 2.8538320064 8.5614960193
47 2 8.5614960193 8.5614960193 2.8538320064
48 2 8.5614960193 8.5614960193 8.5614960193
49 2 0.0 0.0 2.8538320064
50 2 0.0 0.0 8.5614960193
51 2 0.0 5.7076640129 2.8538320064
52 2 0.0 5.7076640129 8.5614960193
53 2 5.7076640129 0.0 2.8538320064
54 2 5.7076640129 0.0 8.5614960193
55 2 5.7076640129 5.7076640129 2.8538320064
56 2 5.7076640129 5.7076640129 8.5614960193
57 2 0.0 2.8538320064 0.0
58 2 0.0 2.8538320064 5.7076640129
59 2 0.0 8.5614960193 0.0
60 2 0.0 8.5614960193 5.7076640129
61 2 5.7076640129 2.8538320064 0.0
62 2 5.7076640129 2.8538320064 5.7076640129
63 2 5.7076640129 8.5614960193 0.0
64 2 5.7076640129 8.5614960193 5.7076640129
65 3 1.4269160032 4.2807480097 4.2807480097
66 3 1.4269160032 4.2807480097 9.9884120226
67 3 1.4269160032 9.9884120226 4.2807480097
68 3 1.4269160032 9.9884120226 9.9884120226
69 3 7.1345800161 4.2807480097 4.2807480097
70 3 7.1345800161 4.2807480097 9.9884120226
71 3 7.1345800161 9.9884120226 4.2807480097
72 3 7.1345800161 9.9884120226 9.9884120226
73 3 1.4269160032 1.4269160032 4.2807480097
74 3 1.4269160032 1.4269160032 9.9884120226
75 3 1.4269160032 7.1345800161 4.2807480097
76 3 1.4269160032 7.1345800161 9.9884120226
77 3 7.1345800161 1.4269160032 4.2807480097
78 3 7.1345800161 1.4269160032 9.9884120226
79 3 7.1345800161 7.1345800161 4.2807480097
80 3 7.1345800161 7.1345800161 9.9884120226
81 3 1.4269160032 1.4269160032 1.4269160032
82 3 1.4269160032 1.4269160032 7.1345800161
83 3 1.4269160032 7.1345800161 1.4269160032
84 3 1.4269160032 7.1345800161 7.1345800161
85 3 7.1345800161 1.4269160032 1.4269160032
86 3 7.1345800161 1.4269160032 7.1345800161
87 3 7.1345800161 7.1345800161 1.4269160032
88 3 7.1345800161 7.1345800161 7.1345800161
89 3 1.4269160032 4.2807480097 1.4269160032
90 3 1.4269160032 4.2807480097 7.1345800161
91 3 1.4269160032 9.9884120226 1.4269160032
92 3 1.4269160032 9.9884120226 7.1345800161
93 3 7.1345800161 4.2807480097 1.4269160032
94 3 7.1345800161 4.2807480097 7.1345800161
95 3 7.1345800161 9.9884120226 1.4269160032
96 3 7.1345800161 9.9884120226 7.1345800161
97 3 4.2807480097 4.2807480097 1.4269160032
98 3 4.2807480097 4.2807480097 7.1345800161
99 3 4.2807480097 9.9884120226 1.4269160032
100 3 4.2807480097 9.9884120226 7.1345800161
101 3 9.9884120226 4.2807480097 1.4269160032
102 3 9.9884120226 4.2807480097 7.1345800161
103 3 9.9884120226 9.9884120226 1.4269160032
104 3 9.9884120226 9.9884120226 7.1345800161
105 3 4.2807480097 1.4269160032 1.4269160032
106 3 4.2807480097 1.4269160032 7.1345800161
107 3 4.2807480097 7.1345800161 1.4269160032
108 3 4.2807480097 7.1345800161 7.1345800161
109 3 9.9884120226 1.4269160032 1.4269160032
110 3 9.9884120226 1.4269160032 7.1345800161
111 3 9.9884120226 7.1345800161 1.4269160032
112 3 9.9884120226 7.1345800161 7.1345800161
113 3 4.2807480097 1.4269160032 4.2807480097
114 3 4.2807480097 1.4269160032 9.9884120226
115 3 4.2807480097 7.1345800161 4.2807480097
116 3 4.2807480097 7.1345800161 9.9884120226
117 3 9.9884120226 1.4269160032 4.2807480097
118 3 9.9884120226 1.4269160032 9.9884120226
119 3 9.9884120226 7.1345800161 4.2807480097
120 3 9.9884120226 7.1345800161 9.9884120226
121 3 4.2807480097 4.2807480097 4.2807480097
122 3 4.2807480097 4.2807480097 9.9884120226
123 3 4.2807480097 9.9884120226 4.2807480097
124 3 4.2807480097 9.9884120226 9.9884120226
125 3 9.9884120226 4.2807480097 4.2807480097
126 3 9.9884120226 4.2807480097 9.9884120226
127 3 9.9884120226 9.9884120226 4.2807480097
128 3 9.9884120226 9.9884120226 9.9884120226
