# Structure data of Fe5CuS12, Space Group No.143 (2x2x2 conventional) 

288 atoms
3 atom types

0.0 15.2645215988 xlo xhi
0.0 13.2194634812 ylo yhi
0.0 18.6951465607 zlo zhi
-7.6322607994 0.0 0.0 xy xz yz

Masses

1 55.845  # Fe
2 32.065  # S
3 63.546  # Cu

Atoms  # atomic

1 1 1.9080654212 5.508109656 3.1158578598
2 1 1.9080656502 12.1178417932 3.1158578598
3 1 -3.8161304073 8.8129751298 3.1158578598
4 1 1.9080654212 5.508109656 12.4634314206
5 1 1.9080656502 12.1178417932 12.4634314206
6 1 -3.8161304073 8.8129751298 12.4634314206
7 1 -1.9080647495 12.1178410001 3.1158578598
8 1 -1.9080652075 5.5081100526 3.1158578598
9 1 3.8161303921 8.8129751298 3.1158578598
10 1 -1.9080647495 12.1178410001 12.4634314206
11 1 -1.9080652075 5.5081100526 12.4634314206
12 1 3.8161303921 8.8129751298 12.4634314206
13 1 9.5403266785 5.508109656 3.1158578598
14 1 5.7241960499 5.5081100526 3.1158578598
15 1 7.6322605628 2.2032437857 3.1158578598
16 1 9.5403266785 5.508109656 12.4634314206
17 1 5.7241960499 5.5081100526 12.4634314206
18 1 7.6322605628 2.2032437857 12.4634314206
19 1 5.7241965078 12.1178410001 3.1158578598
20 1 -5.7241956072 12.1178417932 3.1158578598
21 1 -2.3660008464e-07 2.2032437857 3.1158578598
22 1 5.7241965078 12.1178410001 12.4634314206
23 1 -5.7241956072 12.1178417932 12.4634314206
24 1 -2.3660008464e-07 2.2032437857 12.4634314206
25 1 1.9080652609 1.101621992 6.231715701
26 1 13.356456689 1.101621992 6.231715701
27 1 7.632261265 11.0162192989 6.231715701
28 1 1.9080652609 1.101621992 15.5792895422
29 1 13.356456689 1.101621992 15.5792895422
30 1 7.632261265 11.0162192989 15.5792895422
31 1 -1.9080649632 7.7113534286 6.231715701
32 1 1.9080652075 7.7113534286 6.231715701
33 1 7.6322601572e-09 11.0162192989 6.231715701
34 1 -1.9080649632 7.7113534286 15.5792895422
35 1 1.9080652075 7.7113534286 15.5792895422
36 1 7.6322601572e-09 11.0162192989 15.5792895422
37 1 9.5403262893 1.101621992 6.231715701
38 1 9.5403264648 7.7113534286 6.231715701
39 1 3.8161304073 4.4064875583 6.231715701
40 1 9.5403262893 1.101621992 15.5792895422
41 1 9.5403264648 7.7113534286 15.5792895422
42 1 3.8161304073 4.4064875583 15.5792895422
43 1 5.7241960651 7.7113534286 6.231715701
44 1 5.7241954316 1.101621992 6.231715701
45 1 11.4483916647 4.4064875583 6.231715701
46 1 5.7241960651 7.7113534286 15.5792895422
47 1 5.7241954316 1.101621992 15.5792895422
48 1 11.4483916647 4.4064875583 15.5792895422
49 1 -1.9080651999 3.3048658703 0.0
50 1 5.7241955995 9.9145976109 0.0
51 1 3.8161303997 0.0 0.0
52 1 -1.9080651999 3.3048658703 9.3475732803
53 1 5.7241955995 9.9145976109 9.3475732803
54 1 3.8161303997 0.0 9.3475732803
55 1 -5.7241955995 9.9145976109 0.0
56 1 1.9080651999 3.3048658703 0.0
57 1 11.4483911991 0.0 0.0
58 1 -5.7241955995 9.9145976109 9.3475732803
59 1 1.9080651999 3.3048658703 9.3475732803
60 1 11.4483911991 0.0 9.3475732803
61 1 5.7241955995 3.3048658703 0.0
62 1 9.5403259992 3.3048658703 0.0
63 1 7.6322607994 6.6097317406 0.0
64 1 5.7241955995 3.3048658703 9.3475732803
65 1 9.5403259992 3.3048658703 9.3475732803
66 1 7.6322607994 6.6097317406 9.3475732803
67 1 1.9080651999 9.9145976109 0.0
68 1 -1.9080651998 9.9145976109 0.0
69 1 0.0 6.6097317406 0.0
70 1 1.9080651999 9.9145976109 9.3475732803
71 1 -1.9080651998 9.9145976109 9.3475732803
72 1 0.0 6.6097317406 9.3475732803
73 1 3.8161305066 2.203243984 3.1158578598
74 1 11.448390848 2.203243984 3.1158578598
75 1 7.6322607918 8.8129751298 3.1158578598
76 1 3.8161305066 2.203243984 12.4634314206
77 1 11.448390848 2.203243984 12.4634314206
78 1 7.6322607918 8.8129751298 12.4634314206
79 1 -7.6322610454e-09 8.8129759229 3.1158578598
80 1 -7.6322610454e-09 8.8129759229 12.4634314206
81 1 7.6322606013e-09 4.4064879549 6.231715701
82 1 3.8161299494 11.0162192989 6.231715701
83 1 -3.8161301631 11.0162192989 6.231715701
84 1 7.6322606013e-09 4.4064879549 15.5792895422
85 1 3.8161299494 11.0162192989 15.5792895422
86 1 -3.8161301631 11.0162192989 15.5792895422
87 1 7.632261036 4.4064879549 6.231715701
88 1 7.632261036 4.4064879549 15.5792895422
89 2 4.8493899576 3.8099351432 4.3166439639
90 2 9.5403264572 2.2947273246 4.3166439639
91 2 8.5070666703 7.1148006169 4.3166439639
92 2 4.8493899576 3.8099351432 13.6642166834
93 2 9.5403264572 2.2947273246 13.6642166834
94 2 8.5070666703 7.1148006169 13.6642166834
95 2 1.0332597869 10.4196664872 4.3166439639
96 2 -1.9080651999 8.9044590652 4.3166439639
97 2 0.8748058709 7.1148006169 4.3166439639
98 2 1.0332597869 10.4196664872 13.6642166834
99 2 -1.9080651999 8.9044590652 13.6642166834
100 2 0.8748058709 7.1148006169 13.6642166834
101 2 12.481651215 3.8099351432 4.3166439639
102 2 5.7241960575 8.9044590652 4.3166439639
103 2 4.6909360416 0.5050692729 4.3166439639
104 2 12.481651215 3.8099351432 13.6642166834
105 2 5.7241960575 8.9044590652 13.6642166834
106 2 4.6909360416 0.5050692729 13.6642166834
107 2 8.6655210442 10.4196664872 4.3166439639
108 2 1.9080651998 2.2947273246 4.3166439639
109 2 12.323196841 0.5050692729 4.3166439639
110 2 8.6655210442 10.4196664872 13.6642166834
111 2 1.9080651998 2.2947273246 13.6642166834
112 2 12.323196841 0.5050692729 13.6642166834
113 2 -1.0332592755 2.7997963991 5.0309293164
114 2 5.7241960575 10.9247361566 5.0309293164
115 2 -4.6909362706 12.7143938118 5.0309293164
116 2 -1.0332592755 2.7997963991 14.3785031576
117 2 5.7241960575 10.9247361566 14.3785031576
118 2 -4.6909362706 12.7143938118 14.3785031576
119 2 -4.8493895607 9.4095279415 5.0309293164
120 2 1.9080654288 4.3150048126 5.0309293164
121 2 2.9413249867 12.7143938118 5.0309293164
122 2 -4.8493895607 9.4095279415 14.3785031576
123 2 1.9080654288 4.3150048126 14.3785031576
124 2 2.9413249867 12.7143938118 14.3785031576
125 2 6.5990018139 2.7997963991 5.0309293164
126 2 9.5403262282 4.3150048126 5.0309293164
127 2 6.7574551575 6.1046624677 5.0309293164
128 2 6.5990018139 2.7997963991 14.3785031576
129 2 9.5403262282 4.3150048126 14.3785031576
130 2 6.7574551575 6.1046624677 14.3785031576
131 2 2.7828715287 9.4095279415 5.0309293164
132 2 -1.9080647419 10.9247361566 5.0309293164
133 2 -0.8748060999 6.1046624677 5.0309293164
134 2 2.7828715287 9.4095279415 14.3785031576
135 2 -1.9080647419 10.9247361566 14.3785031576
136 2 -0.8748060999 6.1046624677 14.3785031576
137 2 1.0332631909 6.0131769592 7.4324987391
138 2 1.9080656502 11.1077071869 7.4324987391
139 2 -2.941328177 9.3180424329 7.4324987391
140 2 1.0332631909 6.0131769592 16.7800714773
141 2 1.9080656502 11.1077071869 16.7800714773
142 2 -2.941328177 9.3180424329 16.7800714773
143 2 -2.7828669799 12.6229083032 7.4324987391
144 2 -1.9080652075 4.4979754463 7.4324987391
145 2 4.6909326224 9.3180424329 7.4324987391
146 2 -2.7828669799 12.6229083032 16.7800714773
147 2 -1.9080652075 4.4979754463 16.7800714773
148 2 4.6909326224 9.3180424329 16.7800714773
149 2 8.6655244482 6.0131769592 7.4324987391
150 2 5.7241960499 4.4979754463 7.4324987391
151 2 8.5070627931 2.7083110889 7.4324987391
152 2 8.6655244482 6.0131769592 16.7800714773
153 2 5.7241960499 4.4979754463 16.7800714773
154 2 8.5070627931 2.7083110889 16.7800714773
155 2 4.8493942775 12.6229083032 7.4324987391
156 2 -5.7241956072 11.1077071869 7.4324987391
157 2 0.8748019937 2.7083110889 7.4324987391
158 2 4.8493942775 12.6229083032 16.7800714773
159 2 -5.7241956072 11.1077071869 16.7800714773
160 2 0.8748019937 2.7083110889 16.7800714773
161 2 2.7828672317 0.5965547417 1.9150746722
162 2 13.3564568493 2.1117562943 1.9150746722
163 2 6.7574585767 10.5111527889 1.9150746722
164 2 2.7828672317 0.5965547417 11.2626483638
165 2 13.3564568493 2.1117562943 11.2626483638
166 2 6.7574585767 10.5111527889 11.2626483638
167 2 -1.0332629695 7.2062861386 1.9150746722
168 2 1.9080652075 8.7214880349 1.9150746722
169 2 -0.8748022227 10.5111527889 1.9150746722
170 2 -1.0332629695 7.2062861386 11.2626483638
171 2 1.9080652075 8.7214880349 11.2626483638
172 2 -0.8748022227 10.5111527889 11.2626483638
173 2 10.4151275732 0.5965547417 1.9150746722
174 2 9.5403264496 8.7214880349 1.9150746722
175 2 2.941328406 3.9014206517 1.9150746722
176 2 10.4151275732 0.5965547417 11.2626483638
177 2 9.5403264496 8.7214880349 11.2626483638
178 2 2.941328406 3.9014206517 11.2626483638
179 2 6.5989973719 7.2062861386 1.9150746722
180 2 5.7241956072 2.1117562943 1.9150746722
181 2 10.5735892054 3.9014206517 1.9150746722
182 2 6.5989973719 7.2062861386 11.2626483638
183 2 5.7241956072 2.1117562943 11.2626483638
184 2 10.5735892054 3.9014206517 11.2626483638
185 2 2.7828751616 5.0030380169 8.1467841102
186 2 1.9080651999 13.1279850583 8.1467841102
187 2 -4.6909403615 8.3079038872 8.1467841102
188 2 2.7828751616 5.0030380169 17.4943579514
189 2 1.9080651999 13.1279850583 17.4943579514
190 2 -4.6909403615 8.3079038872 17.4943579514
191 2 -1.0332552381 11.6127697575 8.1467841102
192 2 -1.9080651999 6.5182533177 8.1467841102
193 2 2.9413204379 8.3079038872 8.1467841102
194 2 -1.0332552381 11.6127697575 17.4943579514
195 2 -1.9080651999 6.5182533177 17.4943579514
196 2 2.9413204379 8.3079038872 17.4943579514
197 2 10.415135961 5.0030380169 8.1467841102
198 2 5.7241955996 6.5182533177 8.1467841102
199 2 6.7574508376 1.6981721466 8.1467841102
200 2 10.415135961 5.0030380169 17.4943579514
201 2 5.7241955996 6.5182533177 17.4943579514
202 2 6.7574508376 1.6981721466 17.4943579514
203 2 6.5990055613 11.6127697575 8.1467841102
204 2 -5.7241955995 13.1279850583 8.1467841102
205 2 -0.8748099618 1.6981721466 8.1467841102
206 2 6.5990055613 11.6127697575 17.4943579514
207 2 -5.7241955995 13.1279850583 17.4943579514
208 2 -0.8748099618 1.6981721466 17.4943579514
209 2 1.0332555204 1.6066936312 1.200789301
210 2 13.356456231 0.0914787137 1.200789301
211 2 8.5070707612 11.5212913346 1.200789301
212 2 1.0332555204 1.6066936312 10.5483630113
213 2 13.356456231 0.0914787137 10.5483630113
214 2 8.5070707612 11.5212913346 10.5483630113
215 2 -2.7828749327 8.2164254643 1.200789301
216 2 1.9080651998 6.7012101635 1.200789301
217 2 0.8748095039 11.5212913346 1.200789301
218 2 -2.7828749327 8.2164254643 10.5483630113
219 2 1.9080651998 6.7012101635 10.5483630113
220 2 0.8748095039 11.5212913346 10.5483630113
221 2 8.6655160909 1.6066936312 1.200789301
222 2 9.5403259992 6.7012101635 1.200789301
223 2 4.6909399036 4.911559594 1.200789301
224 2 8.6655160909 1.6066936312 10.5483630113
225 2 9.5403259992 6.7012101635 10.5483630113
226 2 4.6909399036 4.911559594 10.5483630113
227 2 4.8493856378 8.2164254643 1.200789301
228 2 5.7241954316 0.0914787137 1.200789301
229 2 12.3232011609 4.911559594 1.200789301
230 2 4.8493856378 8.2164254643 10.5483630113
231 2 5.7241954316 0.0914787137 10.5483630113
232 2 12.3232011609 4.911559594 10.5483630113
233 2 0.0 0.0 5.7452052091
234 2 0.0 0.0 15.0927784895
235 2 -3.8161303997 6.6097317406 5.7452052091
236 2 3.8161303997 6.6097317406 5.7452052091
237 2 7.6322607994 0.0 5.7452052091
238 2 -3.8161303997 6.6097317406 15.0927784895
239 2 3.8161303997 6.6097317406 15.0927784895
240 2 7.6322607994 0.0 15.0927784895
241 2 0.0 0.0 3.6023677908
242 2 0.0 0.0 12.9499413516
243 2 -3.8161303997 6.6097317406 3.6023677908
244 2 3.8161303997 6.6097317406 3.6023677908
245 2 7.6322607994 0.0 3.6023677908
246 2 -3.8161303997 6.6097317406 12.9499413516
247 2 3.8161303997 6.6097317406 12.9499413516
248 2 7.6322607994 0.0 12.9499413516
249 2 3.8161305066 2.203243984 8.861060003
250 2 11.448390848 2.203243984 8.861060003
251 2 7.6322607918 8.8129751298 8.861060003
252 2 3.8161305066 2.203243984 18.2086332833
253 2 11.448390848 2.203243984 18.2086332833
254 2 7.6322607918 8.8129751298 18.2086332833
255 2 -7.6322610454e-09 8.8129759229 8.861060003
256 2 -7.6322610454e-09 8.8129759229 18.2086332833
257 2 7.6322606013e-09 4.4064879549 0.4865131465
258 2 3.8161299494 11.0162192989 0.4865131465
259 2 -3.8161301631 11.0162192989 0.4865131465
260 2 7.6322606013e-09 4.4064879549 9.8340865577
261 2 3.8161299494 11.0162192989 9.8340865577
262 2 -3.8161301631 11.0162192989 9.8340865577
263 2 7.632261036 4.4064879549 0.4865131465
264 2 7.632261036 4.4064879549 9.8340865577
265 2 3.8161305066 2.203243984 6.7182223042
266 2 11.448390848 2.203243984 6.7182223042
267 2 7.6322607918 8.8129751298 6.7182223042
268 2 3.8161305066 2.203243984 16.0657961454
269 2 11.448390848 2.203243984 16.0657961454
270 2 7.6322607918 8.8129751298 16.0657961454
271 2 -7.6322610454e-09 8.8129759229 6.7182223042
272 2 -7.6322610454e-09 8.8129759229 16.0657961454
273 2 7.6322606013e-09 4.4064879549 2.6293509762
274 2 3.8161299494 11.0162192989 2.6293509762
275 2 -3.8161301631 11.0162192989 2.6293509762
276 2 7.6322606013e-09 4.4064879549 11.9769236957
277 2 3.8161299494 11.0162192989 11.9769236957
278 2 -3.8161301631 11.0162192989 11.9769236957
279 2 7.632261036 4.4064879549 2.6293509762
280 2 7.632261036 4.4064879549 11.9769236957
281 3 0.0 0.0 0.0
282 3 0.0 0.0 9.3475732803
283 3 -3.8161303997 6.6097317406 0.0
284 3 3.8161303997 6.6097317406 0.0
285 3 7.6322607994 0.0 0.0
286 3 -3.8161303997 6.6097317406 9.3475732803
287 3 3.8161303997 6.6097317406 9.3475732803
288 3 7.6322607994 0.0 9.3475732803
