# Structure data of Yb (2x2x2 conventional) 

32 atoms
1 atom types

0.0 10.8985004425 xlo xhi
0.0 10.8985004425 ylo yhi
0.0 10.8985004425 zlo zhi
0.000000    0.000000    0.000000   xy xz yz

Masses

1 173.04  # Yb

Atoms  # atomic

1 1 0.0 0.0 0.0
2 1 0.0 0.0 5.4492502212
3 1 0.0 5.4492502212 0.0
4 1 0.0 5.4492502212 5.4492502212
5 1 5.4492502212 0.0 0.0
6 1 5.4492502212 0.0 5.4492502212
7 1 5.4492502212 5.4492502212 0.0
8 1 5.4492502212 5.4492502212 5.4492502212
9 1 0.0 2.7246251106 2.7246251106
10 1 0.0 2.7246251106 8.1738753319
11 1 0.0 8.1738753319 2.7246251106
12 1 0.0 8.1738753319 8.1738753319
13 1 5.4492502212 2.7246251106 2.7246251106
14 1 5.4492502212 2.7246251106 8.1738753319
15 1 5.4492502212 8.1738753319 2.7246251106
16 1 5.4492502212 8.1738753319 8.1738753319
17 1 2.7246251106 0.0 2.7246251106
18 1 2.7246251106 0.0 8.1738753319
19 1 2.7246251106 5.4492502212 2.7246251106
20 1 2.7246251106 5.4492502212 8.1738753319
21 1 8.1738753319 0.0 2.7246251106
22 1 8.1738753319 0.0 8.1738753319
23 1 8.1738753319 5.4492502212 2.7246251106
24 1 8.1738753319 5.4492502212 8.1738753319
25 1 2.7246251106 2.7246251106 0.0
26 1 2.7246251106 2.7246251106 5.4492502212
27 1 2.7246251106 8.1738753319 0.0
28 1 2.7246251106 8.1738753319 5.4492502212
29 1 8.1738753319 2.7246251106 0.0
30 1 8.1738753319 2.7246251106 5.4492502212
31 1 8.1738753319 8.1738753319 0.0
32 1 8.1738753319 8.1738753319 5.4492502212
