Disp. Num. 2 ( 0.010000 Angstrom, 17 : +x)

128 atoms
2 atom types

0.0 11.3133401871 xlo xhi
0.0 11.3133401871 ylo yhi
0.0 11.3133401871 zlo zhi
0.000000    0.000000    0.000000   xy xz yz

Masses

1 54.938049  # Mn
2 28.0855  # Si

Atoms

    1   1   1.414167523400000   4.242502570200000   4.242502570200000
    2   1   1.414167523400000   4.242502570200000   9.899172663700000
    3   1   1.414167523400000   9.899172663700000   4.242502570200000
    4   1   1.414167523400000   9.899172663700000   9.899172663700000
    5   1   7.070837616900000   4.242502570200000   4.242502570200000
    6   1   7.070837616900000   4.242502570200000   9.899172663700000
    7   1   7.070837616900000   9.899172663700000   4.242502570200000
    8   1   7.070837616900000   9.899172663700000   9.899172663700000
    9   1   1.414167523400000   1.414167523400000   4.242502570200000
   10   1   1.414167523400000   1.414167523400000   9.899172663700000
   11   1   1.414167523400000   7.070837616900000   4.242502570200000
   12   1   1.414167523400000   7.070837616900000   9.899172663700000
   13   1   7.070837616900000   1.414167523400000   4.242502570200000
   14   1   7.070837616900000   1.414167523400000   9.899172663700000
   15   1   7.070837616900000   7.070837616900000   4.242502570200000
   16   1   7.070837616900000   7.070837616900000   9.899172663700000
   17   1   2.838335046800000   0.000000000000000   0.000000000000000
   18   1   2.828335046800000   0.000000000000000   5.656670093500000
   19   1   2.828335046800000   5.656670093500000   0.000000000000000
   20   1   2.828335046800000   5.656670093500000   5.656670093500000
   21   1   8.485005140300000   0.000000000000000   0.000000000000000
   22   1   8.485005140300000   0.000000000000000   5.656670093500000
   23   1   8.485005140300000   5.656670093500000   0.000000000000000
   24   1   8.485005140300000   5.656670093500000   5.656670093500000
   25   1   1.414167523400000   1.414167523400000   1.414167523400000
   26   1   1.414167523400000   1.414167523400000   7.070837616900000
   27   1   1.414167523400000   7.070837616900000   1.414167523400000
   28   1   1.414167523400000   7.070837616900000   7.070837616900000
   29   1   7.070837616900000   1.414167523400000   1.414167523400000
   30   1   7.070837616900000   1.414167523400000   7.070837616900000
   31   1   7.070837616900000   7.070837616900000   1.414167523400000
   32   1   7.070837616900000   7.070837616900000   7.070837616900000
   33   1   1.414167523400000   4.242502570200000   1.414167523400000
   34   1   1.414167523400000   4.242502570200000   7.070837616900000
   35   1   1.414167523400000   9.899172663700000   1.414167523400000
   36   1   1.414167523400000   9.899172663700000   7.070837616900000
   37   1   7.070837616900000   4.242502570200000   1.414167523400000
   38   1   7.070837616900000   4.242502570200000   7.070837616900000
   39   1   7.070837616900000   9.899172663700000   1.414167523400000
   40   1   7.070837616900000   9.899172663700000   7.070837616900000
   41   1   2.828335046800000   2.828335046800000   2.828335046800000
   42   1   2.828335046800000   2.828335046800000   8.485005140300000
   43   1   2.828335046800000   8.485005140300000   2.828335046800000
   44   1   2.828335046800000   8.485005140300000   8.485005140300000
   45   1   8.485005140300000   2.828335046800000   2.828335046800000
   46   1   8.485005140300000   2.828335046800000   8.485005140300000
   47   1   8.485005140300000   8.485005140300000   2.828335046800000
   48   1   8.485005140300000   8.485005140300000   8.485005140300000
   49   1   4.242502570200000   4.242502570200000   1.414167523400000
   50   1   4.242502570200000   4.242502570200000   7.070837616900000
   51   1   4.242502570200000   9.899172663700000   1.414167523400000
   52   1   4.242502570200000   9.899172663700000   7.070837616900000
   53   1   9.899172663700000   4.242502570200000   1.414167523400000
   54   1   9.899172663700000   4.242502570200000   7.070837616900000
   55   1   9.899172663700000   9.899172663700000   1.414167523400000
   56   1   9.899172663700000   9.899172663700000   7.070837616900000
   57   1   4.242502570200000   1.414167523400000   1.414167523400000
   58   1   4.242502570200000   1.414167523400000   7.070837616900000
   59   1   4.242502570200000   7.070837616900000   1.414167523400000
   60   1   4.242502570200000   7.070837616900000   7.070837616900000
   61   1   9.899172663700000   1.414167523400000   1.414167523400000
   62   1   9.899172663700000   1.414167523400000   7.070837616900000
   63   1   9.899172663700000   7.070837616900000   1.414167523400000
   64   1   9.899172663700000   7.070837616900000   7.070837616900000
   65   1   0.000000000000000   0.000000000000000   2.828335046800000
   66   1   0.000000000000000   0.000000000000000   8.485005140300000
   67   1   0.000000000000000   5.656670093500000   2.828335046800000
   68   1   0.000000000000000   5.656670093500000   8.485005140300000
   69   1   5.656670093500000   0.000000000000000   2.828335046800000
   70   1   5.656670093500000   0.000000000000000   8.485005140300000
   71   1   5.656670093500000   5.656670093500000   2.828335046800000
   72   1   5.656670093500000   5.656670093500000   8.485005140300000
   73   1   4.242502570200000   1.414167523400000   4.242502570200000
   74   1   4.242502570200000   1.414167523400000   9.899172663700000
   75   1   4.242502570200000   7.070837616900000   4.242502570200000
   76   1   4.242502570200000   7.070837616900000   9.899172663700000
   77   1   9.899172663700000   1.414167523400000   4.242502570200000
   78   1   9.899172663700000   1.414167523400000   9.899172663700000
   79   1   9.899172663700000   7.070837616900000   4.242502570200000
   80   1   9.899172663700000   7.070837616900000   9.899172663700000
   81   1   4.242502570200000   4.242502570200000   4.242502570200000
   82   1   4.242502570200000   4.242502570200000   9.899172663700000
   83   1   4.242502570200000   9.899172663700000   4.242502570200000
   84   1   4.242502570200000   9.899172663700000   9.899172663700000
   85   1   9.899172663700000   4.242502570200000   4.242502570200000
   86   1   9.899172663700000   4.242502570200000   9.899172663700000
   87   1   9.899172663700000   9.899172663700000   4.242502570200000
   88   1   9.899172663700000   9.899172663700000   9.899172663700000
   89   1   0.000000000000000   2.828335046800000   0.000000000000000
   90   1   0.000000000000000   2.828335046800000   5.656670093500000
   91   1   0.000000000000000   8.485005140300000   0.000000000000000
   92   1   0.000000000000000   8.485005140300000   5.656670093500000
   93   1   5.656670093500000   2.828335046800000   0.000000000000000
   94   1   5.656670093500000   2.828335046800000   5.656670093500000
   95   1   5.656670093500000   8.485005140300000   0.000000000000000
   96   1   5.656670093500000   8.485005140300000   5.656670093500000
   97   2   0.000000000000000   0.000000000000000   0.000000000000000
   98   2   0.000000000000000   0.000000000000000   5.656670093500000
   99   2   0.000000000000000   5.656670093500000   0.000000000000000
  100   2   0.000000000000000   5.656670093500000   5.656670093500000
  101   2   5.656670093500000   0.000000000000000   0.000000000000000
  102   2   5.656670093500000   0.000000000000000   5.656670093500000
  103   2   5.656670093500000   5.656670093500000   0.000000000000000
  104   2   5.656670093500000   5.656670093500000   5.656670093500000
  105   2   0.000000000000000   2.828335046800000   2.828335046800000
  106   2   0.000000000000000   2.828335046800000   8.485005140300000
  107   2   0.000000000000000   8.485005140300000   2.828335046800000
  108   2   0.000000000000000   8.485005140300000   8.485005140300000
  109   2   5.656670093500000   2.828335046800000   2.828335046800000
  110   2   5.656670093500000   2.828335046800000   8.485005140300000
  111   2   5.656670093500000   8.485005140300000   2.828335046800000
  112   2   5.656670093500000   8.485005140300000   8.485005140300000
  113   2   2.828335046800000   0.000000000000000   2.828335046800000
  114   2   2.828335046800000   0.000000000000000   8.485005140300000
  115   2   2.828335046800000   5.656670093500000   2.828335046800000
  116   2   2.828335046800000   5.656670093500000   8.485005140300000
  117   2   8.485005140300000   0.000000000000000   2.828335046800000
  118   2   8.485005140300000   0.000000000000000   8.485005140300000
  119   2   8.485005140300000   5.656670093500000   2.828335046800000
  120   2   8.485005140300000   5.656670093500000   8.485005140300000
  121   2   2.828335046800000   2.828335046800000   0.000000000000000
  122   2   2.828335046800000   2.828335046800000   5.656670093500000
  123   2   2.828335046800000   8.485005140300000   0.000000000000000
  124   2   2.828335046800000   8.485005140300000   5.656670093500000
  125   2   8.485005140300000   2.828335046800000   0.000000000000000
  126   2   8.485005140300000   2.828335046800000   5.656670093500000
  127   2   8.485005140300000   8.485005140300000   0.000000000000000
  128   2   8.485005140300000   8.485005140300000   5.656670093500000

