ITEM: TIMESTEP
0
ITEM: NUMBER OF ATOMS
64
ITEM: BOX BOUNDS xy xz yz pp pp pp
0.0000000000000000e+00 1.0800000000000001e+01 0.0000000000000000e+00
0.0000000000000000e+00 1.0800000000000001e+01 0.0000000000000000e+00
0.0000000000000000e+00 1.0800000000000001e+01 0.0000000000000000e+00
ITEM: ATOMS id xu yu zu fx fy fz
     1    0.040000000000000    0.000000000000000    0.000000000000000   -0.666054835995710   -0.121971347377728   -0.121974763141225
     2    0.000000000000000    0.000000000000000    5.400000000000000   -0.000780176405896   -0.001485009839593   -0.000297795791232
     3    0.000000000000000    2.700000000000000    2.700000000000000   -0.140522550221491    0.101450663771905    0.101455743862644
     4    0.000000000000000    2.700000000000000    8.100000000000000   -0.013397087543550    0.000965081228970    0.000817285051550
     5    0.000000000000000    5.400000000000000    0.000000000000000   -0.000780162264822   -0.000299699436863   -0.001487505867656
     6    0.000000000000000    5.400000000000000    5.400000000000000   -0.008643936011825   -0.000659275779327   -0.000657814826436
     7    0.000000000000000    8.100000000000000    2.700000000000000   -0.013397064197923    0.000824019750757    0.000968962619457
     8    0.000000000000000    8.100000000000000    8.100000000000000   -0.017307424911970    0.000085324153394    0.000080782040521
     9    1.310000000000000    1.350000000000000    1.350000000000000    0.666053021464554    0.121965100417009    0.121966039332881
    10    1.350000000000000    1.350000000000000    6.750000000000000    0.000779215584215    0.001484853722139    0.000299394092515
    11    1.350000000000000    4.050000000000000    4.050000000000000    0.017300244743231   -0.000084260641808   -0.000078406700094
    12    1.350000000000000    4.050000000000000    9.449999999999999    0.013402494833023   -0.000822266514728   -0.000973884895814
    13    1.350000000000000    6.750000000000000    1.350000000000000    0.000779209156454    0.000301882047311    0.001486739678572
    14    1.350000000000000    6.750000000000000    6.750000000000000    0.008642935492294    0.000661076272252    0.000658229596983
    15    1.350000000000000    9.449999999999999    4.050000000000000    0.013402482697411   -0.000967182952476   -0.000818402093529
    16    1.350000000000000    9.449999999999999    9.449999999999999    0.140515636059204   -0.101449303246349   -0.101454670323751
    17    2.700000000000000    0.000000000000000    2.700000000000000   -0.097283711424336    0.081472164615563   -0.066091694400374
    18    2.700000000000000    0.000000000000000    8.100000000000000    0.014887248590627    0.001990243972022   -0.015887692016938
    19    2.700000000000000    2.700000000000000    0.000000000000000   -0.097283590582433   -0.066098110282645    0.081471207650539
    20    2.700000000000000    2.700000000000000    5.400000000000000    0.005152792415624   -0.003542162121859   -0.000034656686319
    21    2.700000000000000    5.400000000000000    2.700000000000000    0.005153239427819   -0.000035523611270   -0.003537776126440
    22    2.700000000000000    5.400000000000000    8.100000000000000    0.001839052034297    0.000970213615970    0.001237715216409
    23    2.700000000000000    8.100000000000000    0.000000000000000    0.014887030715247   -0.015881066898197    0.001987085678910
    24    2.700000000000000    8.100000000000000    5.400000000000000    0.001839464388006    0.001243253117981    0.000972194600419
    25    4.050000000000000    1.350000000000000    4.050000000000000   -0.010735430637198   -0.001199165363945   -0.016443839671125
    26    4.050000000000000    1.350000000000000    9.449999999999999   -0.009921454134095    0.000325745957648    0.015013529715762
    27    4.050000000000000    4.050000000000000    1.350000000000000   -0.010735237547265   -0.016449608200753   -0.001196093819892
    28    4.050000000000000    4.050000000000000    6.750000000000000   -0.000488915641909    0.002151843174349   -0.000509153112462
    29    4.050000000000000    6.750000000000000    4.050000000000000   -0.000488525605385   -0.000506880873317    0.002157303222882
    30    4.050000000000000    6.750000000000000    9.449999999999999   -0.001760898228023    0.002058775677528   -0.001145137514959
    31    4.050000000000000    9.449999999999999    1.350000000000000   -0.009921607114802    0.015017903421303    0.000329031006202
    32    4.050000000000000    9.449999999999999    6.750000000000000   -0.001760472298883   -0.001140124272932    0.002056483075237
    33    5.400000000000000    0.000000000000000    0.000000000000000    0.003569428940172   -0.000243659698755   -0.000245273375242
    34    5.400000000000000    0.000000000000000    5.400000000000000   -0.002808337738722   -0.000638086845913    0.001932039878306
    35    5.400000000000000    2.700000000000000    2.700000000000000    0.000441226336378    0.000479203398224    0.000484562556625
    36    5.400000000000000    2.700000000000000    8.100000000000000    0.001469139543976    0.000369728039298   -0.001669192388044
    37    5.400000000000000    5.400000000000000    0.000000000000000   -0.002808314341672    0.001929951678808   -0.000638776621777
    38    5.400000000000000    5.400000000000000    5.400000000000000    0.001846617097351   -0.000278254575726   -0.000276097624899
    39    5.400000000000000    8.100000000000000    2.700000000000000    0.001469135070254   -0.001664641327728    0.000376187630343
    40    5.400000000000000    8.100000000000000    8.100000000000000    0.000030608122629    0.000030235826725    0.000024940071757
    41    6.750000000000000    1.350000000000000    1.350000000000000   -0.003568778605048    0.000243392972394    0.000246021772284
    42    6.750000000000000    1.350000000000000    6.750000000000000    0.002809528674238    0.000634497789986   -0.001929573880741
    43    6.750000000000000    4.050000000000000    4.050000000000000   -0.000028721909086   -0.000029410759352   -0.000024289273834
    44    6.750000000000000    4.050000000000000    9.449999999999999   -0.001468708524050    0.001665185836199   -0.000374011499077
    45    6.750000000000000    6.750000000000000    1.350000000000000    0.002809481982984   -0.001927271919630    0.000638201002945
    46    6.750000000000000    6.750000000000000    6.750000000000000   -0.001845317301278    0.000280447984813    0.000278321681549
    47    6.750000000000000    9.449999999999999    4.050000000000000   -0.001468727498799   -0.000369937430032    0.001671185662371
    48    6.750000000000000    9.449999999999999    9.449999999999999   -0.000439611785716   -0.000481111311888   -0.000486153350283
    49    8.100000000000000    0.000000000000000    2.700000000000000    0.009921732687536   -0.000323122711343   -0.015015036948530
    50    8.100000000000000    0.000000000000000    8.100000000000000    0.010735710321925    0.001192167075125    0.016445639444141
    51    8.100000000000000    2.700000000000000    0.000000000000000    0.009921521702717   -0.015021202713775   -0.000324178406773
    52    8.100000000000000    2.700000000000000    5.400000000000000    0.001761757079706    0.001139958282438   -0.002055610339590
    53    8.100000000000000    5.400000000000000    2.700000000000000    0.001761343389023   -0.002057604333826    0.001145364389203
    54    8.100000000000000    5.400000000000000    8.100000000000000    0.000489153057681    0.000509373610367   -0.002155968099837
    55    8.100000000000000    8.100000000000000    0.000000000000000    0.010735840934024    0.016450274271036    0.001190815497011
    56    8.100000000000000    8.100000000000000    5.400000000000000    0.000488727488496   -0.002150903589990    0.000511517140030
    57    9.449999999999999    1.350000000000000    4.050000000000000   -0.014887560517001   -0.001987651836079    0.015886873480170
    58    9.449999999999999    1.350000000000000    9.449999999999999    0.097282945903738   -0.081479223839555    0.066094569923433
    59    9.449999999999999    4.050000000000000    1.350000000000000   -0.014887753555513    0.015882997180469   -0.001986413078023
    60    9.449999999999999    4.050000000000000    6.750000000000000   -0.001839188868468   -0.001242365109975   -0.000970489186930
    61    9.449999999999999    6.750000000000000    4.050000000000000   -0.001839634595111   -0.000968089729544   -0.001237358141443
    62    9.449999999999999    6.750000000000000    9.449999999999999   -0.005153480031760    0.000038597160784    0.003534629300453
    63    9.449999999999999    9.449999999999999    1.350000000000000    0.097283129634852    0.066098634068015   -0.081476051765324
    64    9.449999999999999    9.449999999999999    6.750000000000000   -0.005153879529948    0.003540735056123    0.000035165096485
