ITEM: TIMESTEP
0
ITEM: NUMBER OF ATOMS
64
ITEM: BOX BOUNDS xy xz yz pp pp pp
0.0000000000000000e+00 1.0800000000000001e+01 0.0000000000000000e+00
0.0000000000000000e+00 1.0800000000000001e+01 0.0000000000000000e+00
0.0000000000000000e+00 1.0800000000000001e+01 0.0000000000000000e+00
ITEM: ATOMS id xu yu zu fx fy fz
     1    0.040000000000000    0.000000000000000    0.000000000000000   -0.650165343794379   -0.145522486269304   -0.126040646201142
     2    0.000000000000000    0.000000000000000    5.400000000000000   -0.004837838154094    0.002505788901219   -0.000229893903438
     3    0.000000000000000    2.700000000000000    2.700000000000000    0.065509444483860   -0.109065327490394   -0.081158902603468
     4    0.000000000000000    2.700000000000000    8.100000000000000   -0.014357191371687    0.001985983549337    0.000298541514326
     5    0.000000000000000    5.400000000000000    0.000000000000000   -0.003607693142948   -0.001799977213754   -0.000270583788863
     6    0.000000000000000    5.400000000000000    5.400000000000000   -0.008375376864762   -0.000777916816584    0.001931219438921
     7    0.000000000000000    8.100000000000000    2.700000000000000   -0.015744663078285   -0.001453125009408   -0.000641016670696
     8    0.000000000000000    8.100000000000000    8.100000000000000   -0.015503466394615   -0.001285744679041    0.001395769997179
     9    1.350000000000000    1.310000000000000    1.350000000000000    0.145521255995892    0.650164371556995    0.126034255927069
    10    1.350000000000000    1.350000000000000    6.750000000000000   -0.002505646513462    0.004837338331416    0.000230494976203
    11    1.350000000000000    4.050000000000000    4.050000000000000    0.000453568408395   -0.012393124069751   -0.015324751556588
    12    1.350000000000000    4.050000000000000    9.449999999999999   -0.002036481117839   -0.012059202874574    0.013305886308503
    13    1.350000000000000    6.750000000000000    1.350000000000000   -0.002523971442363   -0.005129116041635    0.001491481309140
    14    1.350000000000000    6.750000000000000    6.750000000000000    0.000875423582106    0.002713202251282    0.000687467629548
    15    1.350000000000000    9.449999999999999    4.050000000000000   -0.002918784820811   -0.013823691084122    0.015378483831422
    16    1.350000000000000    9.449999999999999    9.449999999999999    0.124504468043355   -0.113407895826811   -0.116701110465370
    17    2.700000000000000    0.000000000000000    2.700000000000000    0.113412235233820   -0.124505041553882    0.116697231903097
    18    2.700000000000000    0.000000000000000    8.100000000000000    0.013823937447337    0.002921072743692   -0.015379350910639
    19    2.700000000000000    2.700000000000000    0.000000000000000   -0.069343161915415   -0.093932186402609    0.081421779455741
    20    2.700000000000000    2.700000000000000    5.400000000000000    0.001208540021634    0.000555853417009   -0.000013891059519
    21    2.700000000000000    5.400000000000000    2.700000000000000    0.002957100908472   -0.002031151835671   -0.001676103105051
    22    2.700000000000000    5.400000000000000    8.100000000000000    0.003353673487910   -0.000549738559630   -0.000005216719222
    23    2.700000000000000    8.100000000000000    0.000000000000000    0.012157221958340   -0.017545143919952    0.000573767740552
    24    2.700000000000000    8.100000000000000    5.400000000000000    0.001979885095603    0.001017051166066   -0.001552675545745
    25    4.050000000000000    1.350000000000000    4.050000000000000    0.001285038396687    0.015498960894267   -0.001392747664063
    26    4.050000000000000    1.350000000000000    9.449999999999999    0.001456020895613    0.015748136331675    0.000636279462428
    27    4.050000000000000    4.050000000000000    1.350000000000000   -0.013667437001966   -0.013432588117725   -0.001134938561228
    28    4.050000000000000    4.050000000000000    6.750000000000000    0.004132098251862   -0.002361004104011   -0.000551472615221
    29    4.050000000000000    6.750000000000000    4.050000000000000    0.002495140158500   -0.002565859565241    0.000576728778541
    30    4.050000000000000    6.750000000000000    9.449999999999999    0.000706939682347   -0.000461477588050    0.000918845317282
    31    4.050000000000000    9.449999999999999    1.350000000000000    0.017547554741618   -0.012158018640722   -0.000574450317324
    32    4.050000000000000    9.449999999999999    6.750000000000000   -0.001015170763218   -0.001978299546997    0.001551146407168
    33    5.400000000000000    0.000000000000000    0.000000000000000    0.005130489062759    0.002524151316821   -0.001492160749164
    34    5.400000000000000    0.000000000000000    5.400000000000000   -0.002710649041859   -0.000877002085886   -0.000688858648401
    35    5.400000000000000    2.700000000000000    2.700000000000000    0.002471240252703    0.002755334269115   -0.001216112643734
    36    5.400000000000000    2.700000000000000    8.100000000000000    0.003021088444221   -0.001000558406096   -0.000564247866892
    37    5.400000000000000    5.400000000000000    0.000000000000000   -0.000097075745595   -0.000776568015263   -0.000656636643597
    38    5.400000000000000    5.400000000000000    5.400000000000000    0.003850437322880   -0.002223609946141   -0.000246092940451
    39    5.400000000000000    8.100000000000000    2.700000000000000    0.000462510606339   -0.000706301225725   -0.000918979271817
    40    5.400000000000000    8.100000000000000    8.100000000000000    0.002567577320030   -0.002493959764512   -0.000577843043727
    41    6.750000000000000    1.350000000000000    1.350000000000000    0.001800914638386    0.003606818041885    0.000271245796801
    42    6.750000000000000    1.350000000000000    6.750000000000000    0.000777438076962    0.008372434955789   -0.001928768867982
    43    6.750000000000000    4.050000000000000    4.050000000000000    0.001943361273334   -0.002898063159895    0.001670388362925
    44    6.750000000000000    4.050000000000000    9.449999999999999    0.001063037320681   -0.000734526963101   -0.002596328848238
    45    6.750000000000000    6.750000000000000    1.350000000000000    0.000778186371160    0.000097528157110    0.000657670844595
    46    6.750000000000000    6.750000000000000    6.750000000000000    0.002224479030820   -0.003850451103999    0.000247531473312
    47    6.750000000000000    9.449999999999999    4.050000000000000    0.000550825056889   -0.003354907669401    0.000005194504881
    48    6.750000000000000    9.449999999999999    9.449999999999999    0.002032981227809   -0.002958258831009    0.001674405250610
    49    8.100000000000000    0.000000000000000    2.700000000000000    0.012059349838896    0.002036576454387   -0.013305067051826
    50    8.100000000000000    0.000000000000000    8.100000000000000    0.012394020253869   -0.000457706703625    0.015325038543251
    51    8.100000000000000    2.700000000000000    0.000000000000000    0.011668260705041   -0.012365197608916    0.001094191340177
    52    8.100000000000000    2.700000000000000    5.400000000000000    0.001890559224039    0.001138033245219    0.000498447085539
    53    8.100000000000000    5.400000000000000    2.700000000000000    0.000733000704161   -0.001063452862559    0.002599225608619
    54    8.100000000000000    5.400000000000000    8.100000000000000    0.002897538088973   -0.001943052637973   -0.001667719093853
    55    8.100000000000000    8.100000000000000    0.000000000000000    0.013433215158644    0.013667231159355    0.001132805933048
    56    8.100000000000000    8.100000000000000    5.400000000000000    0.002360203256441   -0.004132148234129    0.000553006330363
    57    9.449999999999999    1.350000000000000    4.050000000000000   -0.001985665709422    0.014360429471876   -0.000301086650482
    58    9.449999999999999    1.350000000000000    9.449999999999999    0.109061703930247   -0.065517077629756    0.081165734901793
    59    9.449999999999999    4.050000000000000    1.350000000000000    0.012362924135642   -0.011667651507586   -0.001090443030048
    60    9.449999999999999    4.050000000000000    6.750000000000000   -0.001139981113844   -0.001891116228077   -0.000495590382963
    61    9.449999999999999    6.750000000000000    4.050000000000000    0.000999530992814   -0.003020630222011    0.000565903092424
    62    9.449999999999999    6.750000000000000    9.449999999999999   -0.002755337714395   -0.002469279014336    0.001214351900081
    63    9.449999999999999    9.449999999999999    1.350000000000000    0.093932297525737    0.069343064779095   -0.081423797309825
    64    9.449999999999999    9.449999999999999    6.750000000000000   -0.000555780654758   -0.001209723809480    0.000012963662195
