ITEM: TIMESTEP
0
ITEM: NUMBER OF ATOMS
64
ITEM: BOX BOUNDS xy xz yz pp pp pp
0.0000000000000000e+00 1.0800000000000001e+01 0.0000000000000000e+00
0.0000000000000000e+00 1.0800000000000001e+01 0.0000000000000000e+00
0.0000000000000000e+00 1.0800000000000001e+01 0.0000000000000000e+00
ITEM: ATOMS id xu yu zu fx fy fz
     1   -0.040000000000000    0.000000000000000    0.000000000000000    0.592908064794424    0.093609865772966    0.064040266887540
     2    0.000000000000000    0.000000000000000    5.400000000000000    0.004841185834749   -0.002488509074798    0.000208360287781
     3    0.000000000000000    2.700000000000000    2.700000000000000   -0.084798235910314    0.123514042924985    0.100368491830154
     4    0.000000000000000    2.700000000000000    8.100000000000000    0.014819589157969   -0.002059513275932   -0.000200691249268
     5    0.000000000000000    5.400000000000000    0.000000000000000    0.003490723426335    0.001913358748614    0.000158981612452
     6    0.000000000000000    5.400000000000000    5.400000000000000    0.008387173142756    0.000939387412274   -0.001773084645385
     7    0.000000000000000    8.100000000000000    2.700000000000000    0.016013829623031    0.001320382647720    0.000725456672740
     8    0.000000000000000    8.100000000000000    8.100000000000000    0.015312107276970    0.001374547279455   -0.001360261452580
     9    1.350000000000000    1.390000000000000    1.350000000000000   -0.093610202227676   -0.592908311311906   -0.064035296840066
    10    1.350000000000000    1.350000000000000    6.750000000000000    0.002486683025095   -0.004842101559260   -0.000209704821068
    11    1.350000000000000    4.050000000000000    4.050000000000000   -0.000283604118197    0.013216508912009    0.016603376230730
    12    1.350000000000000    4.050000000000000    9.449999999999999    0.001996518392134    0.012581740590428   -0.014205515654975
    13    1.350000000000000    6.750000000000000    1.350000000000000    0.002467079743132    0.005190222655006   -0.001508317568645
    14    1.350000000000000    6.750000000000000    6.750000000000000   -0.000816676625427   -0.002751525949412   -0.000715282350189
    15    1.350000000000000    9.449999999999999    4.050000000000000    0.003030114974387    0.013363697846013   -0.014679824287659
    16    1.350000000000000    9.449999999999999    9.449999999999999   -0.109928827216311    0.093276068813549    0.096302882952801
    17    2.700000000000000    0.000000000000000    2.700000000000000   -0.093281731670791    0.109928226246389   -0.096298115868301
    18    2.700000000000000    0.000000000000000    8.100000000000000   -0.013365169186165   -0.003034372466013    0.014680568468090
    19    2.700000000000000    2.700000000000000    0.000000000000000    0.088917929406636    0.109046144738252   -0.100099472198309
    20    2.700000000000000    2.700000000000000    5.400000000000000   -0.001136706812506   -0.000592819417797    0.000019634083793
    21    2.700000000000000    5.400000000000000    2.700000000000000   -0.002817108135476    0.002155504786840    0.001744346538342
    22    2.700000000000000    5.400000000000000    8.100000000000000   -0.003374706818091    0.000677555353948   -0.000148432782846
    23    2.700000000000000    8.100000000000000    0.000000000000000   -0.011603850942542    0.016664585996806   -0.000805172013505
    24    2.700000000000000    8.100000000000000    5.400000000000000   -0.001975085975143   -0.001126698943248    0.001672693563627
    25    4.050000000000000    1.350000000000000    4.050000000000000   -0.001373959216478   -0.015308783301897    0.001357206466440
    26    4.050000000000000    1.350000000000000    9.449999999999999   -0.001323657566124   -0.016017964987202   -0.000720262939191
    27    4.050000000000000    4.050000000000000    1.350000000000000    0.015133311757690    0.014467484547472    0.001207496410395
    28    4.050000000000000    4.050000000000000    6.750000000000000   -0.004150182525399    0.002441173501797    0.000465991418775
    29    4.050000000000000    6.750000000000000    4.050000000000000   -0.002410532880410    0.002487110394053   -0.000441143289709
    30    4.050000000000000    6.750000000000000    9.449999999999999   -0.000528847565784    0.000347217609691   -0.000944067953403
    31    4.050000000000000    9.449999999999999    1.350000000000000   -0.016666862041185    0.011602721713529    0.000806260002005
    32    4.050000000000000    9.449999999999999    6.750000000000000    0.001124595265702    0.001971867929567   -0.001671553433132
    33    5.400000000000000    0.000000000000000    0.000000000000000   -0.005190584717915   -0.002468835293154    0.001509641481676
    34    5.400000000000000    0.000000000000000    5.400000000000000    0.002749946262924    0.000816045470741    0.000716181619632
    35    5.400000000000000    2.700000000000000    2.700000000000000   -0.002497628524673   -0.002709114606807    0.001311358071594
    36    5.400000000000000    2.700000000000000    8.100000000000000   -0.002901107553086    0.001172485014525    0.000359919944844
    37    5.400000000000000    5.400000000000000    0.000000000000000    0.000251743816347    0.000938398051335    0.000727780899614
    38    5.400000000000000    5.400000000000000    5.400000000000000   -0.003789839273942    0.002208933414255    0.000297354075512
    39    5.400000000000000    8.100000000000000    2.700000000000000   -0.000347341382653    0.000527939348898    0.000944891632379
    40    5.400000000000000    8.100000000000000    8.100000000000000   -0.002487729824504    0.002408840322443    0.000442293961731
    41    6.750000000000000    1.350000000000000    1.350000000000000   -0.001912564277383   -0.003490722295049   -0.000159159841402
    42    6.750000000000000    1.350000000000000    6.750000000000000   -0.000937037885733   -0.008385349252781    0.001769968724072
    43    6.750000000000000    4.050000000000000    4.050000000000000   -0.002015472881637    0.002997643315354   -0.001636522188337
    44    6.750000000000000    4.050000000000000    9.449999999999999   -0.001136043416172    0.000916089247729    0.002630710117863
    45    6.750000000000000    6.750000000000000    1.350000000000000   -0.000938148654217   -0.000250911292771   -0.000727979748821
    46    6.750000000000000    6.750000000000000    6.750000000000000   -0.002208040058352    0.003790838970719   -0.000299139810299
    47    6.750000000000000    9.449999999999999    4.050000000000000   -0.000676667654474    0.003374230495306    0.000148306901579
    48    6.750000000000000    9.449999999999999    9.449999999999999   -0.002155661469937    0.002816674390179   -0.001742648323946
    49    8.100000000000000    0.000000000000000    2.700000000000000   -0.012580479823719   -0.001997832226437    0.014205548462266
    50    8.100000000000000    0.000000000000000    8.100000000000000   -0.013215824432620    0.000285450685312   -0.016603952055251
    51    8.100000000000000    2.700000000000000    0.000000000000000   -0.012095094873670    0.013169968530149   -0.000966070281375
    52    8.100000000000000    2.700000000000000    5.400000000000000   -0.002057537330848   -0.001004467564510   -0.000428534439909
    53    8.100000000000000    5.400000000000000    2.700000000000000   -0.000913080387200    0.001138193630706   -0.002633525425660
    54    8.100000000000000    5.400000000000000    8.100000000000000   -0.002995869407647    0.002017025262997    0.001633664045942
    55    8.100000000000000    8.100000000000000    0.000000000000000   -0.014466616285547   -0.015133588562780   -0.001205379723061
    56    8.100000000000000    8.100000000000000    5.400000000000000   -0.002439159504370    0.004149835837694   -0.000467896555647
    57    9.449999999999999    1.350000000000000    4.050000000000000    0.002059846491050   -0.014823430696340    0.000202794258327
    58    9.449999999999999    1.350000000000000    9.449999999999999   -0.123511057924304    0.084806129509077   -0.100376152024068
    59    9.449999999999999    4.050000000000000    1.350000000000000   -0.013167299723876    0.012096356925931    0.000963135571495
    60    9.449999999999999    4.050000000000000    6.750000000000000    0.001006329661095    0.002059405238129    0.000424998657262
    61    9.449999999999999    6.750000000000000    4.050000000000000   -0.001171488917293    0.002901921204755   -0.000361714781340
    62    9.449999999999999    6.750000000000000    9.449999999999999    0.002709453066978    0.002496746121674   -0.001309647310209
    63    9.449999999999999    9.449999999999999    1.350000000000000   -0.109045986923869   -0.088919881954671    0.100103491862787
    64    9.449999999999999    9.449999999999999    6.750000000000000    0.000593085372827    0.001136166469224   -0.000019531805264
