ITEM: TIMESTEP
0
ITEM: NUMBER OF ATOMS
64
ITEM: BOX BOUNDS xy xz yz pp pp pp
0.0000000000000000e+00 1.0800000000000001e+01 0.0000000000000000e+00
0.0000000000000000e+00 1.0800000000000001e+01 0.0000000000000000e+00
0.0000000000000000e+00 1.0800000000000001e+01 0.0000000000000000e+00
ITEM: ATOMS id xu yu zu fx fy fz
     1    0.040000000000000    0.000000000000000    0.000000000000000   -0.544124550490779   -0.000530719432566   -0.013422443362874
     2    0.000000000000000    0.000000000000000    5.400000000000000    0.011476424750391   -0.000476233464214   -0.011812866656233
     3    0.000000000000000    2.700000000000000    2.700000000000000   -0.016780662717469    0.000956894010095    0.016781017786974
     4    0.000000000000000    2.700000000000000    8.100000000000000   -0.016210722682747   -0.000295791821111   -0.001788742876318
     5    0.000000000000000    5.400000000000000    0.000000000000000   -0.001367207702249   -0.000255106615095   -0.002664494428490
     6    0.000000000000000    5.400000000000000    5.400000000000000   -0.009593883360875   -0.000245698327362   -0.002682674552796
     7    0.000000000000000    8.100000000000000    2.700000000000000   -0.015443766329568    0.000935687284640    0.015445148606666
     8    0.000000000000000    8.100000000000000    8.100000000000000   -0.016038812272275   -0.000184539983373   -0.002715370514969
     9    1.350000000000000    1.350000000000000    1.350000000000000    0.023049769694567    0.201740688069638   -0.023049711433343
    10    1.350000000000000    1.350000000000000    6.750000000000000   -0.002767301474124    0.001668864315134   -0.001534748212414
    11    1.350000000000000    4.050000000000000    4.050000000000000    0.002424497524934   -0.000501305639310    0.001851287302641
    12    1.350000000000000    4.050000000000000    9.449999999999999   -0.001799372849975   -0.002105066559425   -0.002397597654629
    13    1.350000000000000    6.750000000000000    1.350000000000000   -0.003974731292917    0.000539948874283    0.003974498710821
    14    1.350000000000000    6.750000000000000    6.750000000000000    0.000234377652243   -0.001228892677659   -0.000148643459133
    15    1.350000000000000    9.449999999999999    4.050000000000000    0.079230463865279    0.080371667899177   -0.109980175820339
    16    1.350000000000000    9.449999999999999    9.449999999999999    0.124046637721034   -0.100479060679744   -0.102578571185600
    17    2.700000000000000    0.000000000000000    2.660000000000000    0.013421024318983   -0.000530870613499    0.544123903498090
    18    2.700000000000000    0.000000000000000    8.100000000000000    0.012413848918836    0.000458532850862   -0.021137734241919
    19    2.700000000000000    2.700000000000000    0.000000000000000    0.012803834483300    0.031209970582556   -0.012805229050277
    20    2.700000000000000    2.700000000000000    5.400000000000000    0.003180857225968   -0.016784053798365   -0.011997292893951
    21    2.700000000000000    5.400000000000000    2.700000000000000    0.002663058209623   -0.000255032104492    0.001368446820260
    22    2.700000000000000    5.400000000000000    8.100000000000000    0.002681785259237    0.000233521371664    0.003999129427307
    23    2.700000000000000    8.100000000000000    0.000000000000000    0.012017583123564   -0.031524957085734   -0.012018707416056
    24    2.700000000000000    8.100000000000000    5.400000000000000    0.002204211426925    0.016787503294751   -0.011583073848617
    25    4.050000000000000    1.350000000000000    4.050000000000000   -0.081078802316965   -0.082655741425501   -0.111673804755072
    26    4.050000000000000    1.350000000000000    9.449999999999999    0.001731081799833   -0.000426650746047   -0.001733024217716
    27    4.050000000000000    4.050000000000000    1.350000000000000    0.002395706247454   -0.002104939958249    0.001799163819195
    28    4.050000000000000    4.050000000000000    6.750000000000000    0.002822953592546    0.002165731971296   -0.001059441528460
    29    4.050000000000000    6.750000000000000    4.050000000000000    0.000656974898080   -0.000423299105891    0.002716930609642
    30    4.050000000000000    6.750000000000000    9.449999999999999    0.000186859530836    0.003602801411310   -0.000188558465142
    31    4.050000000000000    9.449999999999999    1.350000000000000    0.102577251592025   -0.100479455704210   -0.124046348317533
    32    4.050000000000000    9.449999999999999    6.750000000000000    0.001166783436452    0.000542252120946   -0.000027787364091
    33    5.400000000000000    0.000000000000000    0.000000000000000    0.021136886754516    0.000458268747027   -0.012415223379778
    34    5.400000000000000    0.000000000000000    5.400000000000000   -0.016842358010882    0.000537323776783   -0.011828996530541
    35    5.400000000000000    2.700000000000000    2.700000000000000    0.001787968099745   -0.000295645165321    0.016212119203763
    36    5.400000000000000    2.700000000000000    8.100000000000000    0.002009037510394   -0.000505851917373   -0.002010145964884
    37    5.400000000000000    5.400000000000000    0.000000000000000   -0.004000159823070    0.000233526616717   -0.002683186973885
    38    5.400000000000000    5.400000000000000    5.400000000000000    0.005968654412361    0.000266321309295   -0.002665229815744
    39    5.400000000000000    8.100000000000000    2.700000000000000    0.002714028758474   -0.000184512832511    0.016039283812805
    40    5.400000000000000    8.100000000000000    8.100000000000000    0.002497585587231   -0.000441167149557   -0.002498639894264
    41    6.750000000000000    1.350000000000000    1.350000000000000    0.001534975857990    0.001668974101288    0.002767071154600
    42    6.750000000000000    1.350000000000000    6.750000000000000    0.002701129271042    0.001271738639737   -0.002700963074860
    43    6.750000000000000    4.050000000000000    4.050000000000000    0.002991629142419    0.000486133398514   -0.001071992014192
    44    6.750000000000000    4.050000000000000    9.449999999999999    0.001059726149707    0.002165740558784   -0.002824812038163
    45    6.750000000000000    6.750000000000000    1.350000000000000    0.000148983513389   -0.001228850768659   -0.000234624118302
    46    6.750000000000000    6.750000000000000    6.750000000000000    0.001966694302053    0.000591498384403   -0.001966505377309
    47    6.750000000000000    9.449999999999999    4.050000000000000    0.000968115954808    0.000942689224428    0.004355845467649
    48    6.750000000000000    9.449999999999999    9.449999999999999    0.000028057587154    0.000542106287910   -0.001168737629994
    49    8.100000000000000    0.000000000000000    2.700000000000000    0.011814353834388   -0.000476002579047   -0.011475342058366
    50    8.100000000000000    0.000000000000000    8.100000000000000    0.011830552254336    0.000537124156245    0.016841113956351
    51    8.100000000000000    2.700000000000000    0.000000000000000    0.011999007871947   -0.016784073698712   -0.003182099943525
    52    8.100000000000000    2.700000000000000    5.400000000000000    0.002920802314941    0.003750784250903   -0.002919402914287
    53    8.100000000000000    5.400000000000000    2.700000000000000    0.002684164610588   -0.000245803691216    0.009594817545915
    54    8.100000000000000    5.400000000000000    8.100000000000000    0.002666761422582    0.000266366560730   -0.005969916670311
    55    8.100000000000000    8.100000000000000    0.000000000000000    0.011584553262036    0.016787536050620   -0.002206092549682
    56    8.100000000000000    8.100000000000000    5.400000000000000    0.002428358243743   -0.003718592585129   -0.002426883252623
    57    9.449999999999999    1.350000000000000    4.050000000000000   -0.002664772776242   -0.003098813390296    0.002666707172281
    58    9.449999999999999    1.350000000000000    9.449999999999999    0.111676137775123   -0.082655869569340    0.081076846323651
    59    9.449999999999999    4.050000000000000    1.350000000000000   -0.001849399803545   -0.000501196213111   -0.002424567407549
    60    9.449999999999999    4.050000000000000    6.750000000000000    0.001073898899414    0.000486012402345   -0.002991464797432
    61    9.449999999999999    6.750000000000000    4.050000000000000    0.000045221302505   -0.001473428608763   -0.000043432071016
    62    9.449999999999999    6.750000000000000    9.449999999999999   -0.002715064039335   -0.000423452292286   -0.000658876178295
    63    9.449999999999999    9.449999999999999    1.350000000000000    0.109982352414404    0.080371924135433   -0.079231179146498
    64    9.449999999999999    9.449999999999999    6.750000000000000   -0.004354054590653    0.000942543597080   -0.000967975109714
