ITEM: TIMESTEP
0
ITEM: NUMBER OF ATOMS
64
ITEM: BOX BOUNDS xy xz yz pp pp pp
0.0000000000000000e+00 1.0800000000000001e+01 0.0000000000000000e+00
0.0000000000000000e+00 1.0800000000000001e+01 0.0000000000000000e+00
0.0000000000000000e+00 1.0800000000000001e+01 0.0000000000000000e+00
ITEM: ATOMS id xu yu zu fx fy fz
     1    0.040000000000000    0.000000000000000    0.000000000000000   -0.527527868490073   -0.000000637016804    0.000000475962830
     2    0.000000000000000    0.000000000000000    5.400000000000000   -0.003335750731145    0.000000284878357   -0.000000590531238
     3    0.000000000000000    2.700000000000000    2.700000000000000   -0.016266807775134    0.000473825007963    0.000476720379948
     4    0.000000000000000    2.700000000000000    8.100000000000000   -0.015928116307288   -0.000467652660692    0.000465068392328
     5    0.000000000000000    5.400000000000000    0.000000000000000   -0.003335733813279    0.000000195095395    0.000000451434495
     6    0.000000000000000    5.400000000000000    5.400000000000000   -0.007690040423576   -0.000000465421302   -0.000000447166462
     7    0.000000000000000    8.100000000000000    2.700000000000000   -0.015928120112523    0.000467721206333   -0.000467910953831
     8    0.000000000000000    8.100000000000000    8.100000000000000   -0.016266803404257   -0.000474558955400   -0.000473833338341
     9    1.350000000000000    1.350000000000000    1.350000000000000    0.123829216758823    0.100727274986939    0.100726346046952
    10    1.350000000000000    1.350000000000000    6.750000000000000   -0.002523450228098    0.001450919773241    0.000276554612979
    11    1.350000000000000    4.050000000000000    4.050000000000000    0.000897083336141   -0.000653082554688   -0.000653775621566
    12    1.350000000000000    4.050000000000000    9.449999999999999   -0.002523470025601   -0.000277433005055   -0.001451419750185
    13    1.350000000000000    6.750000000000000    1.350000000000000   -0.002523444468824    0.000277775887526    0.001452095127865
    14    1.350000000000000    6.750000000000000    6.750000000000000    0.000897112492463    0.000653701728028    0.000651453451575
    15    1.350000000000000    9.449999999999999    4.050000000000000   -0.002523436704089   -0.001450929851970   -0.000276970977611
    16    1.350000000000000    9.449999999999999    9.449999999999999    0.123829240104450   -0.100726840316044   -0.100729360718177
    17    2.700000000000000    0.000000000000000    2.700000000000000    0.012399208022456   -0.000447981038776    0.015702252609856
    18    2.700000000000000    0.000000000000000    8.100000000000000    0.012399271682999    0.000447950391212   -0.015703920022423
    19    2.700000000000000    2.700000000000000    0.000000000000000    0.012399443227078    0.015702048926972   -0.000448450213890
    20    2.700000000000000    2.700000000000000    5.400000000000000    0.002670514000743   -0.001971606602525   -0.000228104311994
    21    2.700000000000000    5.400000000000000    2.700000000000000    0.002670950317145   -0.000226851412864   -0.001971238574654
    22    2.700000000000000    5.400000000000000    8.100000000000000    0.002670871949885    0.000227242580674    0.001969951531259
    23    2.700000000000000    8.100000000000000    0.000000000000000    0.012399081884079   -0.015701879388354    0.000447441826780
    24    2.700000000000000    8.100000000000000    5.400000000000000    0.002671260392324    0.001971902022410    0.000226023877231
    25    4.050000000000000    1.350000000000000    4.050000000000000    0.000915810334333   -0.000742240224608   -0.001801221833928
    26    4.050000000000000    1.350000000000000    9.449999999999999    0.001902033856884   -0.000203710394215    0.000202595614808
    27    4.050000000000000    4.050000000000000    1.350000000000000    0.000915826069492   -0.001801123977698   -0.000741574874234
    28    4.050000000000000    4.050000000000000    6.750000000000000    0.002197999690335    0.000266162363626   -0.000267712688103
    29    4.050000000000000    6.750000000000000    4.050000000000000    0.002198024990001   -0.000266129967712    0.000266291998705
    30    4.050000000000000    6.750000000000000    9.449999999999999    0.000915863813303    0.001801177096713    0.000741036073615
    31    4.050000000000000    9.449999999999999    1.350000000000000    0.001902064915824    0.000203332698992   -0.000202704063988
    32    4.050000000000000    9.449999999999999    6.750000000000000    0.000915858311140    0.000741921561940    0.001799547839335
    33    5.400000000000000    0.000000000000000    0.000000000000000    0.005385155659062    0.000000249037163    0.000000439298882
    34    5.400000000000000    0.000000000000000    5.400000000000000   -0.002027838145014   -0.000000413073618   -0.000000547953750
    35    5.400000000000000    2.700000000000000    2.700000000000000    0.002260985575267    0.000231257565741    0.000231893142727
    36    5.400000000000000    2.700000000000000    8.100000000000000    0.002254381745270   -0.000245874242319    0.000245182666682
    37    5.400000000000000    5.400000000000000    0.000000000000000   -0.002027776952732    0.000000570476624    0.000000620767424
    38    5.400000000000000    5.400000000000000    5.400000000000000    0.004089885655620    0.000000325707494   -0.000000458067944
    39    5.400000000000000    8.100000000000000    2.700000000000000    0.002254377631504    0.000246128730223   -0.000244500912663
    40    5.400000000000000    8.100000000000000    8.100000000000000    0.002260984803936   -0.000230857090534   -0.000232476629139
    41    6.750000000000000    1.350000000000000    1.350000000000000    0.001810557153722    0.000226262938510    0.000228014786142
    42    6.750000000000000    1.350000000000000    6.750000000000000    0.000798773666165    0.000639370855405   -0.001899263080614
    43    6.750000000000000    4.050000000000000    4.050000000000000    0.002237618196595   -0.000274688042672   -0.000273765684712
    44    6.750000000000000    4.050000000000000    9.449999999999999    0.000798786007466    0.001898467838051   -0.000639452873633
    45    6.750000000000000    6.750000000000000    1.350000000000000    0.000798838715104   -0.001898591508168    0.000641578559832
    46    6.750000000000000    6.750000000000000    6.750000000000000    0.002237638456897    0.000274551259923    0.000273955740743
    47    6.750000000000000    9.449999999999999    4.050000000000000    0.000798831618856   -0.000639977173224    0.001899498285236
    48    6.750000000000000    9.449999999999999    9.449999999999999    0.001810593920513   -0.000226751808283   -0.000226492795235
    49    8.100000000000000    0.000000000000000    2.700000000000000    0.011801373614281   -0.000502538895204   -0.014814227634152
    50    8.100000000000000    0.000000000000000    8.100000000000000    0.011801314633148    0.000502007859319    0.014815969557322
    51    8.100000000000000    2.700000000000000    0.000000000000000    0.011801273341213   -0.014816506918123   -0.000500744984305
    52    8.100000000000000    2.700000000000000    5.400000000000000    0.002674722692810    0.001875501037430   -0.000249550921481
    53    8.100000000000000    5.400000000000000    2.700000000000000    0.002674340163911   -0.000249468491877    0.001877351975422
    54    8.100000000000000    5.400000000000000    8.100000000000000    0.002674414931624    0.000249632888287   -0.001875955608672
    55    8.100000000000000    8.100000000000000    0.000000000000000    0.011801457380860    0.014816007301133    0.000503760529705
    56    8.100000000000000    8.100000000000000    5.400000000000000    0.002673984991561   -0.001875551173964    0.000249582803175
    57    9.449999999999999    1.350000000000000    4.050000000000000   -0.002468941274074   -0.001550630283689    0.000167518758623
    58    9.449999999999999    1.350000000000000    9.449999999999999    0.109700221744665   -0.081767166850540    0.081768244194668
    59    9.449999999999999    4.050000000000000    1.350000000000000   -0.002468961740064    0.000167622322704   -0.001549511904736
    60    9.449999999999999    4.050000000000000    6.750000000000000    0.000803454772937    0.000747425216402   -0.000747721973262
    61    9.449999999999999    6.750000000000000    4.050000000000000    0.000803491796839   -0.000747130156472    0.000748510376687
    62    9.449999999999999    6.750000000000000    9.449999999999999   -0.002468945644951   -0.000167073134824    0.001550275728405
    63    9.449999999999999    9.449999999999999    1.350000000000000    0.109700249615435    0.081766802113683   -0.081764073914900
    64    9.449999999999999    9.449999999999999    6.750000000000000   -0.002468938394437    0.001550722277801   -0.000168723475258
