ITEM: TIMESTEP
0
ITEM: NUMBER OF ATOMS
64
ITEM: BOX BOUNDS xy xz yz pp pp pp
0.0000000000000000e+00 1.0800000000000001e+01 0.0000000000000000e+00
0.0000000000000000e+00 1.0800000000000001e+01 0.0000000000000000e+00
0.0000000000000000e+00 1.0800000000000001e+01 0.0000000000000000e+00
ITEM: ATOMS id xu yu zu fx fy fz
     1    0.040000000000000    0.000000000000000    0.000000000000000   -0.544108042304183   -0.000585643722780   -0.000583087428031
     2    0.000000000000000    0.000000000000000    5.400000000000000   -0.019263284374775    0.000512376763045   -0.000487550385521
     3    0.040000000000000    2.700000000000000    2.700000000000000   -0.544108037213396    0.000583517419516    0.000585384966842
     4    0.000000000000000    2.700000000000000    8.100000000000000   -0.019263282060781   -0.000511789677087    0.000484244099645
     5    0.000000000000000    5.400000000000000    0.000000000000000   -0.019263265142915   -0.000485410301138    0.000510849372819
     6    0.000000000000000    5.400000000000000    5.400000000000000   -0.023950865496093    0.000401288344697    0.000403167153460
     7    0.000000000000000    8.100000000000000    2.700000000000000   -0.019263263137453    0.000485890120624   -0.000513814421731
     8    0.000000000000000    8.100000000000000    8.100000000000000   -0.023950869815548   -0.000402953134737   -0.000400361410171
     9    1.350000000000000    1.350000000000000    1.350000000000000    0.248088574743482    0.000000330129793   -0.000003615949679
    10    1.350000000000000    1.350000000000000    6.750000000000000   -0.005065798227136   -0.000000074921980    0.000000137194126
    11    1.350000000000000    4.050000000000000    4.050000000000000    0.124864462961600    0.100056375964938    0.100052743765880
    12    1.350000000000000    4.050000000000000    9.449999999999999   -0.005067517833121    0.001185771247466   -0.001185187349678
    13    1.350000000000000    6.750000000000000    1.350000000000000   -0.005065820852854    0.000000339180081   -0.000000000205688
    14    1.350000000000000    6.750000000000000    6.750000000000000    0.001799076555915    0.000000600969921   -0.000001659390721
    15    1.350000000000000    9.449999999999999    4.050000000000000   -0.005067436072004   -0.001185518970712    0.001185371595013
    16    1.350000000000000    9.449999999999999    9.449999999999999    0.124864557423973   -0.100055431289793   -0.100058136348637
    17    2.700000000000000    0.000000000000000    2.700000000000000    0.024756583097933   -0.016182827332274    0.016180668067453
    18    2.700000000000000    0.000000000000000    8.100000000000000    0.015036972376369    0.002410787728269   -0.015495217777769
    19    2.700000000000000    2.700000000000000    0.000000000000000    0.024757124006857    0.016183051326882   -0.016184522564190
    20    2.700000000000000    2.700000000000000    5.400000000000000    0.015036145560645   -0.002410596386686    0.015492339940715
    21    2.700000000000000    5.400000000000000    2.700000000000000    0.015036857653695    0.015494464855583   -0.002412566726763
    22    2.700000000000000    5.400000000000000    8.100000000000000    0.005335744433553   -0.001746674416184    0.001746081725219
    23    2.700000000000000    8.100000000000000    0.000000000000000    0.015036362510427   -0.015493794260157    0.002409348681187
    24    2.700000000000000    8.100000000000000    5.400000000000000    0.005336551811728    0.001747341360642   -0.001748468995570
    25    4.050000000000000    1.350000000000000    4.050000000000000    0.002809739299103   -0.000546634002599   -0.001978615432873
    26    4.050000000000000    1.350000000000000    9.449999999999999    0.002809761719132    0.000545761266952    0.001976761152445
    27    4.050000000000000    4.050000000000000    1.350000000000000    0.002809696104550   -0.001977503995902   -0.000547250604834
    28    4.050000000000000    4.050000000000000    6.750000000000000    0.003104208132780   -0.000470853428447   -0.002056601346035
    29    4.050000000000000    6.750000000000000    4.050000000000000    0.003104285934397   -0.002055626331859   -0.000471975304101
    30    4.050000000000000    6.750000000000000    9.449999999999999    0.003104302595153    0.002055673331646    0.000470178616410
    31    4.050000000000000    9.449999999999999    1.350000000000000    0.002809830624728    0.001977061457428    0.000545334720747
    32    4.050000000000000    9.449999999999999    6.750000000000000    0.003104354891414    0.000470479795568    0.002054883077025
    33    5.400000000000000    0.000000000000000    0.000000000000000    0.007636637867159   -0.000226582835308   -0.000226982539184
    34    5.400000000000000    0.000000000000000    5.400000000000000    0.000217216096620    0.000236734223609   -0.000236567256095
    35    5.400000000000000    2.700000000000000    2.700000000000000    0.007636662961137    0.000227449554571    0.000226421164269
    36    5.400000000000000    2.700000000000000    8.100000000000000    0.000217225198329   -0.000237344346662    0.000237190131825
    37    5.400000000000000    5.400000000000000    0.000000000000000    0.000217293898236   -0.000235866681593    0.000237941357082
    38    5.400000000000000    5.400000000000000    5.400000000000000    0.006338929325545    0.000244937794707    0.000243932132967
    39    5.400000000000000    8.100000000000000    2.700000000000000    0.000217271323941    0.000237318584196   -0.000236705890039
    40    5.400000000000000    8.100000000000000    8.100000000000000    0.006338921920765   -0.000243857622365   -0.000244234083458
    41    6.750000000000000    1.350000000000000    1.350000000000000    0.003623500909307   -0.000000446909351    0.000000845019142
    42    6.750000000000000    1.350000000000000    6.750000000000000    0.001600070151300   -0.000000614236820    0.000000901120638
    43    6.750000000000000    4.050000000000000    4.050000000000000    0.004071593534010   -0.000036503407700   -0.000035853072576
    44    6.750000000000000    4.050000000000000    9.449999999999999    0.001600362640127    0.002549476745691   -0.002548224463626
    45    6.750000000000000    6.750000000000000    1.350000000000000    0.001600095296701   -0.000000059392510    0.000001575881253
    46    6.750000000000000    6.750000000000000    6.750000000000000    0.004489138919834   -0.000000101661464    0.000000961387323
    47    6.750000000000000    9.449999999999999    4.050000000000000    0.001600554701619   -0.002550143124506    0.002550699820011
    48    6.750000000000000    9.449999999999999    9.449999999999999    0.004071706816866    0.000035947483527    0.000037670020570
    49    8.100000000000000    0.000000000000000    2.700000000000000    0.023618965600280    0.014331845939625   -0.014330809630322
    50    8.100000000000000    0.000000000000000    8.100000000000000    0.014493125347998   -0.001380045637443    0.015014445131740
    51    8.100000000000000    2.700000000000000    0.000000000000000    0.023618785571557   -0.014332961541785    0.014334582520208
    52    8.100000000000000    2.700000000000000    5.400000000000000    0.014493916836748    0.001379478348988   -0.015011714104743
    53    8.100000000000000    5.400000000000000    2.700000000000000    0.014493472087125   -0.015012962375885    0.001381238269888
    54    8.100000000000000    5.400000000000000    8.100000000000000    0.005379502314907    0.002133486106644   -0.002131841474061
    55    8.100000000000000    8.100000000000000    0.000000000000000    0.014493664148617    0.015012610134595   -0.001377689888831
    56    8.100000000000000    8.100000000000000    5.400000000000000    0.005378684909425   -0.002133307414894    0.002134352363108
    57    9.449999999999999    1.350000000000000    4.050000000000000    0.107238890270860    0.080228517707245   -0.081580543038547
    58    9.449999999999999    1.350000000000000    9.449999999999999    0.107238837357533   -0.080228681229479    0.081583480216688
    59    9.449999999999999    4.050000000000000    1.350000000000000    0.107238784598473   -0.081581364557796    0.080230365508490
    60    9.449999999999999    4.050000000000000    6.750000000000000   -0.001642638331268   -0.000798229929026   -0.000589562240014
    61    9.449999999999999    6.750000000000000    4.050000000000000   -0.001642615499862   -0.000589415789912   -0.000798095460270
    62    9.449999999999999    6.750000000000000    9.449999999999999   -0.001642615294174    0.000590425822529    0.000799699983626
    63    9.449999999999999    9.449999999999999    1.350000000000000    0.107238918193053    0.081581757988177   -0.080226754186799
    64    9.449999999999999    9.449999999999999    6.750000000000000   -0.001642569837049    0.000798723066832    0.000590412967008
