ITEM: TIMESTEP
0
ITEM: NUMBER OF ATOMS
64
ITEM: BOX BOUNDS xy xz yz pp pp pp
0.0000000000000000e+00 1.0800000000000001e+01 0.0000000000000000e+00
0.0000000000000000e+00 1.0800000000000001e+01 0.0000000000000000e+00
0.0000000000000000e+00 1.0800000000000001e+01 0.0000000000000000e+00
ITEM: ATOMS id xu yu zu fx fy fz
     1   -0.040000000000000    0.000000000000000    0.000000000000000    0.543108384247394    0.000343496707534    0.000340236444426
     2    0.000000000000000    0.000000000000000    5.400000000000000    0.019595530906871   -0.000432300696345    0.000461090534007
     3   -0.040000000000000    2.700000000000000    2.700000000000000    0.543108393194837   -0.000341221640175   -0.000344048826474
     4    0.000000000000000    2.700000000000000    8.100000000000000    0.019595551218595    0.000431764415408   -0.000458652510056
     5    0.000000000000000    5.400000000000000    0.000000000000000    0.019595528592877    0.000459569622964   -0.000430730522944
     6    0.000000000000000    5.400000000000000    5.400000000000000    0.023630539940550   -0.000540243265727   -0.000542465162649
     7    0.000000000000000    8.100000000000000    2.700000000000000    0.019595516971485   -0.000459976371665    0.000433529529939
     8    0.000000000000000    8.100000000000000    8.100000000000000    0.023630545751246    0.000541868357917    0.000539227422414
     9    1.350000000000000    1.350000000000000    1.350000000000000   -0.218928468082384   -0.000000631103264    0.000003551877759
    10    1.350000000000000    1.350000000000000    6.750000000000000    0.004919256491510   -0.000000122641676   -0.000000484756007
    11    1.350000000000000    4.050000000000000    4.050000000000000   -0.110367334249926   -0.081041243162413   -0.081037755870794
    12    1.350000000000000    4.050000000000000    9.449999999999999    0.004914586183376   -0.001368596921330    0.001367963915449
    13    1.350000000000000    6.750000000000000    1.350000000000000    0.004919280042825   -0.000000495503223    0.000000111791615
    14    1.350000000000000    6.750000000000000    6.750000000000000   -0.001605030068624   -0.000000795911050    0.000001600049634
    15    1.350000000000000    9.449999999999999    4.050000000000000    0.004914663727882    0.001367975999639   -0.001368292759690
    16    1.350000000000000    9.449999999999999    9.449999999999999   -0.110367240456041    0.081039829466420    0.081042796469371
    17    2.700000000000000    0.000000000000000    2.700000000000000   -0.023632517942518    0.015275313385905   -0.015273293783470
    18    2.700000000000000    0.000000000000000    8.100000000000000   -0.014509140705319   -0.002392979385646    0.014545814371547
    19    2.700000000000000    2.700000000000000    0.000000000000000   -0.023632614873150   -0.015275134334201    0.015276757369507
    20    2.700000000000000    2.700000000000000    5.400000000000000   -0.014508390148549    0.002392639279968   -0.014543130395758
    21    2.700000000000000    5.400000000000000    2.700000000000000   -0.014508942627443   -0.014544858229277    0.002394663561813
    22    2.700000000000000    5.400000000000000    8.100000000000000   -0.005354437750279    0.001624782423215   -0.001624081128804
    23    2.700000000000000    8.100000000000000    0.000000000000000   -0.014508677957966    0.014544472769318   -0.002391202495458
    24    2.700000000000000    8.100000000000000    5.400000000000000   -0.005355339333716   -0.001625685549315    0.001626630327305
    25    4.050000000000000    1.350000000000000    4.050000000000000   -0.002615483729610    0.000411002748109    0.002153321302216
    26    4.050000000000000    1.350000000000000    9.449999999999999   -0.002615500544632   -0.000410547199848   -0.002151699552462
    27    4.050000000000000    4.050000000000000    1.350000000000000   -0.002615577214962    0.002152327724667    0.000411956627808
    28    4.050000000000000    4.050000000000000    6.750000000000000   -0.003046096238865    0.000371405170639    0.002185913700307
    29    4.050000000000000    6.750000000000000    4.050000000000000   -0.003046047079351    0.002184704767061    0.000372772381066
    30    4.050000000000000    6.750000000000000    9.449999999999999   -0.003046040600168   -0.002185103751028   -0.000370407582167
    31    4.050000000000000    9.449999999999999    1.350000000000000   -0.002615429273620   -0.002152288335349   -0.000409785278797
    32    4.050000000000000    9.449999999999999    6.750000000000000   -0.003045968814936   -0.000371368609535   -0.002184080862889
    33    5.400000000000000    0.000000000000000    0.000000000000000   -0.007645777320226    0.000249307283637    0.000250063548259
    34    5.400000000000000    0.000000000000000    5.400000000000000   -0.000241820227888   -0.000241266874818    0.000240606666654
    35    5.400000000000000    2.700000000000000    2.700000000000000   -0.007645754848774   -0.000250222288239   -0.000249121238529
    36    5.400000000000000    2.700000000000000    8.100000000000000   -0.000241809892048    0.000241834163273   -0.000240866296767
    37    5.400000000000000    5.400000000000000    0.000000000000000   -0.000241864656570    0.000239874930367   -0.000241793231292
    38    5.400000000000000    5.400000000000000    5.400000000000000   -0.006356055245662   -0.000232860032213   -0.000231413631773
    39    5.400000000000000    8.100000000000000    2.700000000000000   -0.000241887693665   -0.000241321125119    0.000241588365701
    40    5.400000000000000    8.100000000000000    8.100000000000000   -0.006356060747826    0.000231581216352    0.000232683243081
    41    6.750000000000000    1.350000000000000    1.350000000000000   -0.003796666635747    0.000000706128088   -0.000000929659896
    42    6.750000000000000    1.350000000000000    6.750000000000000   -0.001829064168230    0.000000715795440   -0.000001036155037
    43    6.750000000000000    4.050000000000000    4.050000000000000   -0.004075450550429    0.000075074703175    0.000074195899722
    44    6.750000000000000    4.050000000000000    9.449999999999999   -0.001826994994904   -0.002529486461107    0.002528675020587
    45    6.750000000000000    6.750000000000000    1.350000000000000   -0.001829087359591    0.000000220600750   -0.000001243334622
    46    6.750000000000000    6.750000000000000    6.750000000000000   -0.004382338332142    0.000000126446910   -0.000000670852536
    47    6.750000000000000    9.449999999999999    4.050000000000000   -0.001826783033064    0.002530436638416   -0.002530963869065
    48    6.750000000000000    9.449999999999999    9.449999999999999   -0.004075352488511   -0.000074244390749   -0.000075784585075
    49    8.100000000000000    0.000000000000000    2.700000000000000   -0.024782258351256   -0.015239842328007    0.015238527310997
    50    8.100000000000000    0.000000000000000    8.100000000000000   -0.015051201896059    0.001519996707127   -0.015986546709605
    51    8.100000000000000    2.700000000000000    0.000000000000000   -0.024781792004356    0.015240693774910   -0.015242304571760
    52    8.100000000000000    2.700000000000000    5.400000000000000   -0.015051999349772   -0.001519292018858    0.015983801541534
    53    8.100000000000000    5.400000000000000    2.700000000000000   -0.015051371331833    0.015985072335550   -0.001521109069696
    54    8.100000000000000    5.400000000000000    8.100000000000000   -0.005312922951747   -0.002189693994973    0.002188397284226
    55    8.100000000000000    8.100000000000000    0.000000000000000   -0.015051928644403   -0.015984986203555    0.001517870866662
    56    8.100000000000000    8.100000000000000    5.400000000000000   -0.005312037206312    0.002189599995400   -0.002190592955884
    57    9.449999999999999    1.350000000000000    4.050000000000000   -0.121296705599184   -0.099268170051706    0.100467048531832
    58    9.449999999999999    1.350000000000000    9.449999999999999   -0.121296760723661    0.099268946473786   -0.100470441669611
    59    9.449999999999999    4.050000000000000    1.350000000000000   -0.121296777435839    0.100468652232434   -0.099270375699249
    60    9.449999999999999    4.050000000000000    6.750000000000000    0.001647874230928    0.000803359590656    0.000363448322710
    61    9.449999999999999    6.750000000000000    4.050000000000000    0.001647930795223    0.000363719471370    0.000802860230777
    62    9.449999999999999    6.750000000000000    9.449999999999999    0.001647926424346   -0.000364308254257   -0.000804370908825
    63    9.449999999999999    9.449999999999999    1.350000000000000   -0.121296666415554   -0.100468339174773    0.099266678862629
    64    9.449999999999999    9.449999999999999    6.750000000000000    0.001647958974526   -0.000803445516962   -0.000364707341068
