ITEM: TIMESTEP
0
ITEM: NUMBER OF ATOMS
64
ITEM: BOX BOUNDS xy xz yz pp pp pp
0.0000000000000000e+00 1.0800000000000001e+01 0.0000000000000000e+00
0.0000000000000000e+00 1.0800000000000001e+01 0.0000000000000000e+00
0.0000000000000000e+00 1.0800000000000001e+01 0.0000000000000000e+00
ITEM: ATOMS id xu yu zu fx fy fz
     1    0.040000000000000    0.000000000000000    0.000000000000000   -0.526966498563079    0.011943953381011    0.014885245186149
     2    0.000000000000000    0.000000000000000    5.400000000000000   -0.003846161113614    0.011800256983679   -0.014825294129899
     3    0.000000000000000    2.740000000000000    2.700000000000000   -0.016164802399824   -0.526932194426583    0.000565689845033
     4    0.000000000000000    2.700000000000000    8.100000000000000   -0.015973637709088   -0.003804372955272    0.000476369372788
     5    0.000000000000000    5.400000000000000    0.000000000000000   -0.002887218396184    0.012411434034824   -0.015729868327023
     6    0.000000000000000    5.400000000000000    5.400000000000000   -0.008139036174379    0.012398238201911    0.015663389905419
     7    0.000000000000000    8.100000000000000    2.700000000000000   -0.015947310475134    0.005849567956993   -0.000456463420425
     8    0.000000000000000    8.100000000000000    8.100000000000000   -0.016342050782797   -0.002577343814016   -0.000556638992220
     9    1.350000000000000    1.350000000000000    1.350000000000000    0.041794203419912    0.210242241158479    0.182358449805633
    10    1.350000000000000    1.350000000000000    6.750000000000000   -0.004100012669852   -0.001019924220866    0.000449732012232
    11    1.350000000000000    4.050000000000000    4.050000000000000    0.101689796013081    0.123220007116696    0.100181078946248
    12    1.350000000000000    4.050000000000000    9.449999999999999   -0.001063902034482   -0.002833590919561   -0.001176016991937
    13    1.350000000000000    6.750000000000000    1.350000000000000   -0.002736847566331    0.002184962957356    0.001670056844735
    14    1.350000000000000    6.750000000000000    6.750000000000000    0.000163729053715    0.001565953191198   -0.001160772657376
    15    1.350000000000000    9.449999999999999    4.050000000000000   -0.002304768602021    0.000379852276737   -0.000084072231284
    16    1.350000000000000    9.449999999999999    9.449999999999999    0.124370497362295   -0.100030507261727   -0.102697462802684
    17    2.700000000000000    0.000000000000000    2.700000000000000   -0.002379768331794    0.011299090441112    0.015186110464549
    18    2.700000000000000    0.000000000000000    8.100000000000000    0.014344395499759    0.003166808146378   -0.015996407306009
    19    2.700000000000000    2.700000000000000    0.000000000000000    0.011987208302940   -0.000271608888151    0.000060255937799
    20    2.700000000000000    2.700000000000000    5.400000000000000    0.003192806278980   -0.018242506907233    0.000274523234886
    21    2.700000000000000    5.400000000000000    2.700000000000000    0.018410686233975    0.012204681509991   -0.002411872991398
    22    2.700000000000000    5.400000000000000    8.100000000000000    0.000701635545579    0.002905440018113    0.001744608276761
    23    2.700000000000000    8.100000000000000    0.000000000000000    0.012183240916888   -0.013457863615750    0.000727407678112
    24    2.700000000000000    8.100000000000000    5.400000000000000    0.002902024306038    0.004233691170618    0.000452204540403
    25    4.050000000000000    1.350000000000000    4.050000000000000    0.001083503465251   -0.003214708333885   -0.003383056839290
    26    4.050000000000000    1.350000000000000    9.449999999999999    0.002649258629995    0.000599762067920   -0.000508520106581
    27    4.050000000000000    4.050000000000000    1.350000000000000    0.000647100623401   -0.004334919815317   -0.002204248862203
    28    4.050000000000000    4.050000000000000    6.750000000000000    0.001556601313493    0.001177982961136   -0.000913527707927
    29    4.050000000000000    6.750000000000000    4.050000000000000    0.000408214128375    0.000672843033969   -0.000485787225030
    30    4.050000000000000    6.750000000000000    9.449999999999999    0.001197281567239    0.004005012062545    0.000475347615935
    31    4.050000000000000    9.449999999999999    1.350000000000000    0.003794444173182    0.001031489305160   -0.000836041771709
    32    4.050000000000000    9.449999999999999    6.750000000000000    0.000662934512181    0.002991523418610    0.001518051923827
    33    5.400000000000000    0.000000000000000    0.000000000000000    0.005647413389418    0.002672907904544   -0.001880976615434
    34    5.400000000000000    0.000000000000000    5.400000000000000   -0.002267442646630    0.002692857874213    0.001874403330156
    35    5.400000000000000    2.700000000000000    2.700000000000000    0.002265608780770   -0.003108753073868    0.000231129627591
    36    5.400000000000000    2.700000000000000    8.100000000000000    0.002268553569380   -0.007943696935841    0.000250864447251
    37    5.400000000000000    5.400000000000000    0.000000000000000   -0.001793538140122    0.002676146518954    0.001983686884701
    38    5.400000000000000    5.400000000000000    5.400000000000000    0.003863395791444    0.002686646446155   -0.001976514429275
    39    5.400000000000000    8.100000000000000    2.700000000000000    0.002264265738723   -0.001774868837509   -0.000250762785787
    40    5.400000000000000    8.100000000000000    8.100000000000000    0.002277336256013    0.003870374282761   -0.000225000114917
    41    6.750000000000000    1.350000000000000    1.350000000000000    0.001641570191694   -0.002243646870557    0.001783218344488
    42    6.750000000000000    1.350000000000000    6.750000000000000    0.000063023114523    0.001423520594479   -0.001146972409261
    43    6.750000000000000    4.050000000000000    4.050000000000000    0.002501802455409   -0.002806782631991    0.001167999517369
    44    6.750000000000000    4.050000000000000    9.449999999999999    0.001454219271402    0.002808532628428    0.000035963218685
    45    6.750000000000000    6.750000000000000    1.350000000000000    0.002608711080904   -0.000987377896964    0.001365061395794
    46    6.750000000000000    6.750000000000000    6.750000000000000    0.001976708187696    0.002488005806840    0.000537239341718
    47    6.750000000000000    9.449999999999999    4.050000000000000   -0.001097551464977    0.000176988701438    0.002541002334465
    48    6.750000000000000    9.449999999999999    9.449999999999999    0.002112462289549    0.002029348257419    0.000052901139655
    49    8.100000000000000    0.000000000000000    2.700000000000000    0.026552015319177    0.011254202302304   -0.014309525411783
    50    8.100000000000000    0.000000000000000    8.100000000000000    0.009966808516959    0.003226199576064    0.015123160317967
    51    8.100000000000000    2.700000000000000    0.000000000000000    0.011278384155400   -0.031099869056886   -0.001063400000655
    52    8.100000000000000    2.700000000000000    5.400000000000000    0.003102858508706   -0.014047237445240   -0.000681601140845
    53    8.100000000000000    5.400000000000000    2.700000000000000   -0.013014839563239    0.012130369242088    0.002334495092983
    54    8.100000000000000    5.400000000000000    8.100000000000000    0.004645272777152    0.002919958221396   -0.001648281545273
    55    8.100000000000000    8.100000000000000    0.000000000000000    0.011558839904948    0.017081674497393    0.000294005109304
    56    8.100000000000000    8.100000000000000    5.400000000000000    0.002922352896528    0.000383208339192   -0.000005206691915
    57    9.449999999999999    1.350000000000000    4.050000000000000    0.079233622261235    0.108124372424401   -0.081523622800057
    58    9.449999999999999    1.350000000000000    9.449999999999999    0.111268367984994   -0.084249972033272    0.081579323820883
    59    9.449999999999999    4.050000000000000    1.350000000000000   -0.103223309735473    0.123972895775490   -0.102331019297720
    60    9.449999999999999    4.050000000000000    6.750000000000000   -0.000644427754783   -0.001781083350892   -0.001024102213946
    61    9.449999999999999    6.750000000000000    4.050000000000000    0.001010713188255    0.001151959940244    0.000540117075927
    62    9.449999999999999    6.750000000000000    9.449999999999999   -0.001745266068087    0.000759606800088    0.003365233841373
    63    9.449999999999999    9.449999999999999    1.350000000000000    0.109548543971069    0.083568872926254   -0.081989305994848
    64    9.449999999999999    9.449999999999999    6.750000000000000   -0.003134020755736    0.002379389042487    0.001734017435311
