ITEM: TIMESTEP
0
ITEM: NUMBER OF ATOMS
64
ITEM: BOX BOUNDS xy xz yz pp pp pp
0.0000000000000000e+00 1.0800000000000001e+01 0.0000000000000000e+00
0.0000000000000000e+00 1.0800000000000001e+01 0.0000000000000000e+00
0.0000000000000000e+00 1.0800000000000001e+01 0.0000000000000000e+00
ITEM: ATOMS id xu yu zu fx fy fz
     1   -0.040000000000000    0.000000000000000    0.000000000000000    0.528005277000379    0.011647864700197    0.014721117045623
     2    0.000000000000000    0.000000000000000    5.400000000000000    0.002838978360109    0.011803136106285   -0.014798037184627
     3    0.000000000000000    2.740000000000000    2.700000000000000    0.015806893315661   -0.528043346107759   -0.000499392069217
     4    0.000000000000000    2.700000000000000    8.100000000000000    0.016304678496107   -0.002860519740501   -0.000486421670729
     5    0.000000000000000    5.400000000000000    0.000000000000000    0.003783474402379    0.012388347883541   -0.015677762121399
     6    0.000000000000000    5.400000000000000    5.400000000000000    0.007246384599314    0.012398273785994    0.015740579033356
     7    0.000000000000000    8.100000000000000    2.700000000000000    0.016279453751681    0.004904529257447    0.000466211608148
     8    0.000000000000000    8.100000000000000    8.100000000000000    0.016008674404624   -0.001488807103547    0.000542151693612
     9    1.350000000000000    1.350000000000000    1.350000000000000   -0.191201782258597    0.028093385976384    0.000122952779185
    10    1.350000000000000    1.350000000000000    6.750000000000000    0.000941857112229   -0.004014907728811   -0.000004796035135
    11    1.350000000000000    4.050000000000000    4.050000000000000    0.099859827021823    0.124516953017349    0.101359871702398
    12    1.350000000000000    4.050000000000000    9.449999999999999    0.003911978144346   -0.002321462319504    0.001824907926691
    13    1.350000000000000    6.750000000000000    1.350000000000000    0.002275756929480    0.001726381461200   -0.001361752847346
    14    1.350000000000000    6.750000000000000    6.750000000000000   -0.001555538418972    0.000169166785063   -0.002536279421537
    15    1.350000000000000    9.449999999999999    4.050000000000000    0.002700152302827    0.003337449151230    0.000431235744940
    16    1.350000000000000    9.449999999999999    9.449999999999999   -0.108981904205838    0.082669039999743    0.079940268734847
    17    2.700000000000000    0.000000000000000    2.700000000000000   -0.026644478246531    0.012351596004320   -0.015296715103911
    18    2.700000000000000    0.000000000000000    8.100000000000000   -0.009993324367125    0.002129366066254    0.014606377247778
    19    2.700000000000000    2.700000000000000    0.000000000000000   -0.012312904535430   -0.030696956699864    0.000920216487211
    20    2.700000000000000    2.700000000000000    5.400000000000000   -0.002250474592318   -0.014380744846890    0.000705408538309
    21    2.700000000000000    5.400000000000000    2.700000000000000    0.012990846891999    0.012616299266251    0.001426028603889
    22    2.700000000000000    5.400000000000000    8.100000000000000   -0.004644466067464    0.002413728146001   -0.002107077780060
    23    2.700000000000000    8.100000000000000    0.000000000000000   -0.012076109736604    0.017077657352598   -0.000293553314855
    24    2.700000000000000    8.100000000000000    5.400000000000000   -0.002440134364280    0.000381101679165   -0.000007458310803
    25    4.050000000000000    1.350000000000000    4.050000000000000   -0.000631794993713   -0.001824030100258    0.000383345584740
    26    4.050000000000000    1.350000000000000    9.449999999999999   -0.001061192193384    0.001032425855616   -0.001013704565275
    27    4.050000000000000    4.050000000000000    1.350000000000000   -0.001083290783502   -0.000611073898440   -0.000800814403077
    28    4.050000000000000    4.050000000000000    6.750000000000000   -0.002900878107737    0.000606318126799   -0.000385851228734
    29    4.050000000000000    6.750000000000000    4.050000000000000   -0.004050096942255    0.001164661864020   -0.001004798208524
    30    4.050000000000000    6.750000000000000    9.449999999999999   -0.000545303816073    0.000291856128900   -0.000910393583196
    31    4.050000000000000    9.449999999999999    1.350000000000000    0.000095339581699    0.000544483839487   -0.000419509452406
    32    4.050000000000000    9.449999999999999    6.750000000000000   -0.001094461203285    0.001586129675156   -0.002162894963379
    33    5.400000000000000    0.000000000000000    0.000000000000000   -0.005147563766478    0.002679764216984   -0.001871857936890
    34    5.400000000000000    0.000000000000000    5.400000000000000    0.001766255946605    0.002655356055287    0.001881242210509
    35    5.400000000000000    2.700000000000000    2.700000000000000   -0.002259651480663   -0.003580086938866   -0.000244289413622
    36    5.400000000000000    2.700000000000000    8.100000000000000   -0.002276217568528   -0.007447531139734   -0.000237126111328
    37    5.400000000000000    5.400000000000000    0.000000000000000    0.002249045315432    0.002664982578354    0.001952471775767
    38    5.400000000000000    5.400000000000000    5.400000000000000   -0.004318445001655    0.002654222712507   -0.001962603623675
    39    5.400000000000000    8.100000000000000    2.700000000000000   -0.002270101477019   -0.002268061408593    0.000239706677301
    40    5.400000000000000    8.100000000000000    8.100000000000000   -0.002270722193021    0.004325207520210    0.000236199176802
    41    6.750000000000000    1.350000000000000    1.350000000000000   -0.002064093441149   -0.002670507778671    0.001340524627459
    42    6.750000000000000    1.350000000000000    6.750000000000000   -0.001679095613357    0.000082256054622    0.002545871543229
    43    6.750000000000000    4.050000000000000    4.050000000000000   -0.001908712300328   -0.002249008651484    0.001730180370662
    44    6.750000000000000    4.050000000000000    9.449999999999999   -0.000264456127384   -0.000915820310218    0.001366877521034
    45    6.750000000000000    6.750000000000000    1.350000000000000    0.000877178720752    0.002719380614938    0.000013164671130
    46    6.750000000000000    6.750000000000000    6.750000000000000   -0.002471178443355    0.001913771410856    0.000002344898552
    47    6.750000000000000    9.449999999999999    4.050000000000000   -0.002819982887204    0.001523804769720   -0.001158828388297
    48    6.750000000000000    9.449999999999999    9.449999999999999   -0.001655461045525    0.002425244687847    0.000469385482152
    49    8.100000000000000    0.000000000000000    2.700000000000000    0.002473997145010    0.012285900895355    0.016207309696042
    50    8.100000000000000    0.000000000000000    8.100000000000000   -0.014317791049339    0.002185632061541   -0.015513679643685
    51    8.100000000000000    2.700000000000000    0.000000000000000   -0.012830932997124   -0.000542034502677    0.000049488564327
    52    8.100000000000000    2.700000000000000    5.400000000000000   -0.002162540973738   -0.017908619084990   -0.000274274300567
    53    8.100000000000000    5.400000000000000    2.700000000000000   -0.018381978363119    0.012643106731068   -0.001535755519661
    54    8.100000000000000    5.400000000000000    8.100000000000000   -0.000698425470427    0.002444605257563    0.002193838049477
    55    8.100000000000000    8.100000000000000    0.000000000000000   -0.012619202197283   -0.013446805347537   -0.000700798908237
    56    8.100000000000000    8.100000000000000    5.400000000000000   -0.002426239499526    0.004217659049697   -0.000463577203251
    57    9.449999999999999    1.350000000000000    4.050000000000000    0.084348295844321    0.111174836146735   -0.082113297345907
    58    9.449999999999999    1.350000000000000    9.449999999999999   -0.122296105517100    0.098280282201914   -0.100874671666171
    59    9.449999999999999    4.050000000000000    1.350000000000000   -0.098174736364547    0.123571839344402   -0.099234947321683
    60    9.449999999999999    4.050000000000000    6.750000000000000   -0.002349706671675   -0.003170614254931    0.000373242018979
    61    9.449999999999999    6.750000000000000    4.050000000000000   -0.000692909011864    0.002550320119327   -0.000849796357011
    62    9.449999999999999    6.750000000000000    9.449999999999999    0.003286196655080    0.001183074004780    0.000331486822194
    63    9.449999999999999    9.449999999999999    1.350000000000000   -0.124133366880090   -0.098909518689729    0.100502156344113
    64    9.449999999999999    9.449999999999999    6.750000000000000    0.001907209129905   -0.000680941858278    0.002176552823737
