ITEM: TIMESTEP
0
ITEM: NUMBER OF ATOMS
64
ITEM: BOX BOUNDS xy xz yz pp pp pp
0.0000000000000000e+00 1.0800000000000001e+01 0.0000000000000000e+00
0.0000000000000000e+00 1.0800000000000001e+01 0.0000000000000000e+00
0.0000000000000000e+00 1.0800000000000001e+01 0.0000000000000000e+00
ITEM: ATOMS id xu yu zu fx fy fz
     1   -0.040000000000000    0.000000000000000    0.000000000000000    0.512699985515245   -0.000376208816242   -0.011417921174446
     2    0.000000000000000    0.000000000000000    5.400000000000000    0.018151777932626   -0.000529707960130   -0.011789596928102
     3    0.000000000000000    2.700000000000000    2.700000000000000    0.015495999342057   -0.000000692912611    0.015760346608885
     4    0.000000000000000    2.700000000000000    8.100000000000000    0.016082346930352    0.000768396788657   -0.002745835581354
     5    0.000000000000000    5.400000000000000    0.000000000000000    0.005311140816506   -0.000195766556074   -0.002677680696896
     6    0.000000000000000    5.400000000000000    5.400000000000000    0.005840007614150   -0.000252034556822   -0.002667816655212
     7    0.000000000000000    8.100000000000000    2.700000000000000    0.016714864867176   -0.000011759099826    0.016427446978534
     8    0.000000000000000    8.100000000000000    8.100000000000000    0.016201159203157    0.000669427630426   -0.001800329095090
     9    1.350000000000000    1.350000000000000    1.350000000000000   -0.210360371368733    0.018691872588524   -0.205615691985663
    10    1.350000000000000    1.350000000000000    6.750000000000000    0.002258509910350   -0.001316856481004   -0.001974840074727
    11    1.350000000000000    4.050000000000000    4.050000000000000    0.000766983709729    0.000933893785118    0.003182438198008
    12    1.350000000000000    4.050000000000000    9.449999999999999    0.003229793208557   -0.001604379424967    0.000662001869804
    13    1.350000000000000    6.750000000000000    1.350000000000000    0.001015629602493    0.000124180172960    0.000974343426556
    14    1.350000000000000    6.750000000000000    6.750000000000000   -0.001425699348271   -0.002666598260302   -0.001547598437487
    15    1.350000000000000    9.449999999999999    4.050000000000000    0.084242194905534    0.083262072664932   -0.109526807135327
    16    1.350000000000000    9.449999999999999    9.449999999999999   -0.109508944850936    0.081925510212058    0.079817743273199
    17    2.700000000000000    0.000000000000000    2.660000000000000   -0.012826085077105    0.000591663860676    0.511812983427679
    18    2.700000000000000    0.000000000000000    8.100000000000000   -0.011816722284255   -0.000517364962516    0.009483135870958
    19    2.700000000000000    2.700000000000000    0.000000000000000   -0.011312342169834    0.001072864132774   -0.011927766222499
    20    2.700000000000000    2.700000000000000    5.400000000000000   -0.002183958632590   -0.012940029786653   -0.011582606884652
    21    2.700000000000000    5.400000000000000    2.700000000000000   -0.002669928868825    0.000282116425821    0.005214256978136
    22    2.700000000000000    5.400000000000000    8.100000000000000   -0.002686012720365   -0.000254300882427    0.000149084660633
    23    2.700000000000000    8.100000000000000    0.000000000000000   -0.012310627205499   -0.000769549260453   -0.012839458573326
    24    2.700000000000000    8.100000000000000    5.400000000000000   -0.003215964986827    0.012935856370137   -0.012044674849673
    25    4.050000000000000    1.350000000000000    4.050000000000000   -0.082338288204849   -0.080974339480156   -0.107617670345678
    26    4.050000000000000    1.350000000000000    9.449999999999999   -0.002045090203509    0.000044183656227   -0.002095987630154
    27    4.050000000000000    4.050000000000000    1.350000000000000    0.000622740644199    0.001653830554016    0.003147996610275
    28    4.050000000000000    4.050000000000000    6.750000000000000   -0.001584716390540    0.001625641326321   -0.000531649606683
    29    4.050000000000000    6.750000000000000    4.050000000000000   -0.003801248292205    0.000098212739343    0.002213921819414
    30    4.050000000000000    6.750000000000000    9.449999999999999   -0.001550927143392   -0.000101281198070   -0.001545566442329
    31    4.050000000000000    9.449999999999999    1.350000000000000    0.098969506667036   -0.100995596409698   -0.123583965443656
    32    4.050000000000000    9.449999999999999    6.750000000000000   -0.000595123744324   -0.000898057630408   -0.003691600566445
    33    5.400000000000000    0.000000000000000    0.000000000000000    0.010271279563466    0.000436321594953   -0.012385008687530
    34    5.400000000000000    0.000000000000000    5.400000000000000   -0.012790869329865    0.000465331570565   -0.011775548465577
    35    5.400000000000000    2.700000000000000    2.700000000000000   -0.002714035700455   -0.000651189142052    0.015634195530205
    36    5.400000000000000    2.700000000000000    8.100000000000000   -0.002506392287978    0.000000341339808   -0.002487175751525
    37    5.400000000000000    5.400000000000000    0.000000000000000    0.000059553717790    0.000221406328157   -0.002660146176882
    38    5.400000000000000    5.400000000000000    5.400000000000000   -0.002219759203217    0.000234859888567   -0.002684032250138
    39    5.400000000000000    8.100000000000000    2.700000000000000   -0.001775390823106   -0.000753050689787    0.016485306184318
    40    5.400000000000000    8.100000000000000    8.100000000000000   -0.002024323342579   -0.000010482495114   -0.002011509678610
    41    6.750000000000000    1.350000000000000    1.350000000000000   -0.002180535001514    0.001260087629136    0.002304568364418
    42    6.750000000000000    1.350000000000000    6.750000000000000    0.000980697859435   -0.000095532105990    0.001001329531700
    43    6.750000000000000    4.050000000000000    4.050000000000000   -0.001455771292807    0.001003530139879   -0.000542092198258
    44    6.750000000000000    4.050000000000000    9.449999999999999   -0.000643325882321   -0.001533195213989   -0.001471901012849
    45    6.750000000000000    6.750000000000000    1.350000000000000   -0.001571595479605    0.002437348367072   -0.001655786341642
    46    6.750000000000000    6.750000000000000    6.750000000000000   -0.002475720453384   -0.000036373978309   -0.002503800511990
    47    6.750000000000000    9.449999999999999    4.050000000000000   -0.000750088469090    0.002256469790502    0.000682205967423
    48    6.750000000000000    9.449999999999999    9.449999999999999   -0.003718825578602    0.000915572301496   -0.000691798346225
    49    8.100000000000000    0.000000000000000    2.700000000000000   -0.012413422218365    0.000420693703051    0.019041476028748
    50    8.100000000000000    0.000000000000000    8.100000000000000   -0.012430030318074   -0.000484653110919   -0.013681415530454
    51    8.100000000000000    2.700000000000000    0.000000000000000   -0.012142212879823    0.013731779195844   -0.002218760072082
    52    8.100000000000000    2.700000000000000    5.400000000000000   -0.002418388735361   -0.000094168752219   -0.002453293636090
    53    8.100000000000000    5.400000000000000    2.700000000000000   -0.002681306262505    0.000225120956820    0.005693153643616
    54    8.100000000000000    5.400000000000000    8.100000000000000   -0.002661289958345   -0.000244151705276   -0.002119524496022
    55    8.100000000000000    8.100000000000000    0.000000000000000   -0.012633691964151   -0.013735839072393   -0.003082690406548
    56    8.100000000000000    8.100000000000000    5.400000000000000   -0.002924928731669    0.000059558602888   -0.002900362087102
    57    9.449999999999999    1.350000000000000    4.050000000000000    0.002386746977378   -0.000099694363913    0.002163985214450
    58    9.449999999999999    1.350000000000000    9.449999999999999   -0.122190126088703    0.100133148573977   -0.101871184799590
    59    9.449999999999999    4.050000000000000    1.350000000000000    0.003212341375257   -0.000910865483681    0.000536533984962
    60    9.449999999999999    4.050000000000000    6.750000000000000   -0.000617437124496   -0.000939776780310   -0.001582022181756
    61    9.449999999999999    6.750000000000000    4.050000000000000   -0.001637406802485   -0.000118912751561   -0.001465453608838
    62    9.449999999999999    6.750000000000000    9.449999999999999    0.002238992451848   -0.000000867182062   -0.003642444085951
    63    9.449999999999999    9.449999999999999    1.350000000000000   -0.123554427774596   -0.102238633914872    0.103245053307508
    64    9.449999999999999    9.449999999999999    6.750000000000000    0.000611100277970   -0.002129382521322   -0.000522492978639
