ITEM: TIMESTEP
0
ITEM: NUMBER OF ATOMS
64
ITEM: BOX BOUNDS xy xz yz pp pp pp
0.0000000000000000e+00 1.0800000000000001e+01 0.0000000000000000e+00
0.0000000000000000e+00 1.0800000000000001e+01 0.0000000000000000e+00
0.0000000000000000e+00 1.0800000000000001e+01 0.0000000000000000e+00
ITEM: ATOMS id xu yu zu fx fy fz
     1    0.040000000000000    0.000000000000000    0.000000000000000   -0.527963755259865   -0.012538602242369   -0.015769154286652
     2    0.000000000000000    0.000000000000000    5.400000000000000   -0.002885037174132   -0.012396046489753    0.015713183659828
     3    0.000000000000000    2.660000000000000    2.700000000000000   -0.016372482681937    0.527939565179235    0.000426382374179
     4    0.000000000000000    2.700000000000000    8.100000000000000   -0.015883831658083    0.002872135424129    0.000453542800196
     5    0.000000000000000    5.400000000000000    0.000000000000000   -0.003841421591352   -0.011812717532183    0.014839188634698
     6    0.000000000000000    5.400000000000000    5.400000000000000   -0.007189212855401   -0.011800060448466   -0.014774068270390
     7    0.000000000000000    8.100000000000000    2.700000000000000   -0.015910888005797   -0.004913098388156   -0.000477936512287
     8    0.000000000000000    8.100000000000000    8.100000000000000   -0.016187431151651    0.001624931650109   -0.000390721003140
     9    1.350000000000000    1.350000000000000    1.350000000000000    0.224795848598611   -0.022935713810469    0.000108381302621
    10    1.350000000000000    1.350000000000000    6.750000000000000   -0.001046867439990    0.003979771120162   -0.000004400650714
    11    1.350000000000000    4.050000000000000    4.050000000000000   -0.080939367936403   -0.110416180963774   -0.082530004088927
    12    1.350000000000000    4.050000000000000    9.449999999999999   -0.004082041216372    0.002224587428577   -0.001619597122888
    13    1.350000000000000    6.750000000000000    1.350000000000000   -0.002289441632167   -0.001537334126285    0.001210960562075
    14    1.350000000000000    6.750000000000000    6.750000000000000    0.001528687811024   -0.000143591650542    0.002564312120401
    15    1.350000000000000    9.449999999999999    4.050000000000000   -0.002717897139174   -0.003371927917131   -0.000445546562949
    16    1.350000000000000    9.449999999999999    9.449999999999999    0.123171551056437   -0.101539925417283   -0.098861072862465
    17    2.700000000000000    0.000000000000000    2.700000000000000    0.028054668899295   -0.012779345691772    0.016147781637873
    18    2.700000000000000    0.000000000000000    8.100000000000000    0.010358490393202   -0.002270380390414   -0.015428172684775
    19    2.700000000000000    2.700000000000000    0.000000000000000    0.012808359009820    0.031997662789147   -0.000960813247238
    20    2.700000000000000    2.700000000000000    5.400000000000000    0.002162386244680    0.013965956919016   -0.000715834726239
    21    2.700000000000000    5.400000000000000    2.700000000000000   -0.012178619099781   -0.012057239425057   -0.001479151115625
    22    2.700000000000000    5.400000000000000    8.100000000000000    0.004547511729414   -0.002454765541885    0.002215924246873
    23    2.700000000000000    8.100000000000000    0.000000000000000    0.012598984369967   -0.017949219855941    0.000175370602652
    24    2.700000000000000    8.100000000000000    5.400000000000000    0.002428608515037   -0.000286169000434   -0.000009196891537
    25    4.050000000000000    1.350000000000000    4.050000000000000    0.000639524658865    0.001782029671544   -0.000318245172202
    26    4.050000000000000    1.350000000000000    9.449999999999999    0.001247178731463   -0.001095197464715    0.000815974251151
    27    4.050000000000000    4.050000000000000    1.350000000000000    0.001074510925084    0.000678378261593    0.000813391576872
    28    4.050000000000000    4.050000000000000    6.750000000000000    0.002937401055830   -0.000550846499899    0.000475258861415
    29    4.050000000000000    6.750000000000000    4.050000000000000    0.004088090767702   -0.001090637971177    0.000921305298464
    30    4.050000000000000    6.750000000000000    9.449999999999999    0.000629951460501   -0.000443590158258    0.001012661673945
    31    4.050000000000000    9.449999999999999    1.350000000000000    0.000104045649424   -0.000742117891465    0.000533076003932
    32    4.050000000000000    9.449999999999999    6.750000000000000    0.001166071600513   -0.001468749610296    0.002077783748844
    33    5.400000000000000    0.000000000000000    0.000000000000000    0.005138136298306   -0.002668699726698    0.001972479183906
    34    5.400000000000000    0.000000000000000    5.400000000000000   -0.001808778618027   -0.002689771829132   -0.001965098109076
    35    5.400000000000000    2.700000000000000    2.700000000000000    0.002255976344163    0.003575393696482    0.000233750097103
    36    5.400000000000000    2.700000000000000    8.100000000000000    0.002240549615462    0.007450370564489    0.000239917147900
    37    5.400000000000000    5.400000000000000    0.000000000000000   -0.002284027092180   -0.002679759846107   -0.001892105897548
    38    5.400000000000000    5.400000000000000    5.400000000000000    0.004343398083199   -0.002690483613649    0.001883938424754
    39    5.400000000000000    8.100000000000000    2.700000000000000    0.002244527473783    0.002266340517057   -0.000239910000230
    40    5.400000000000000    8.100000000000000    8.100000000000000    0.002246300970114   -0.004337279677696   -0.000241335009082
    41    6.750000000000000    1.350000000000000    1.350000000000000    0.002086264536408    0.002751392406254   -0.001229105667940
    42    6.750000000000000    1.350000000000000    6.750000000000000    0.001440230818451   -0.000235717660387   -0.002554935765783
    43    6.750000000000000    4.050000000000000    4.050000000000000    0.002084376317404    0.002202786932293   -0.001811743872627
    44    6.750000000000000    4.050000000000000    9.449999999999999    0.000046972070273    0.001083052647821   -0.001413526403495
    45    6.750000000000000    6.750000000000000    1.350000000000000   -0.001109771769494   -0.002696691904959    0.000014426620547
    46    6.750000000000000    6.750000000000000    6.750000000000000    0.002506289855183   -0.001982662711011    0.000005450381182
    47    6.750000000000000    9.449999999999999    4.050000000000000    0.002597709788362   -0.001574965734556    0.001160266921158
    48    6.750000000000000    9.449999999999999    9.449999999999999    0.001512025101060   -0.002445887055906   -0.000501084421496
    49    8.100000000000000    0.000000000000000    2.700000000000000   -0.003835462748583   -0.012855820566931   -0.015258378910215
    50    8.100000000000000    0.000000000000000    8.100000000000000    0.013728202481217   -0.002219454784466    0.014529231108706
    51    8.100000000000000    2.700000000000000    0.000000000000000    0.012307462998848    0.001134712201205    0.000043336425935
    52    8.100000000000000    2.700000000000000    5.400000000000000    0.002241344395226    0.018131248487468    0.000191330526964
    53    8.100000000000000    5.400000000000000    2.700000000000000    0.017478738929086   -0.012033273081924    0.001367552384493
    54    8.100000000000000    5.400000000000000    8.100000000000000    0.000799466681621   -0.002425521852891   -0.002126219291690
    55    8.100000000000000    8.100000000000000    0.000000000000000    0.012057387623509    0.012552720536087    0.000725627239800
    56    8.100000000000000    8.100000000000000    5.400000000000000    0.002441640722872   -0.004143944049325    0.000495606992297
    57    9.449999999999999    1.350000000000000    4.050000000000000   -0.103135735248743   -0.125361743331426    0.100820259179980
    58    9.449999999999999    1.350000000000000    9.449999999999999    0.108234653156042   -0.079228506380724    0.082067297410174
    59    9.449999999999999    4.050000000000000    1.350000000000000    0.079322814641063   -0.109514017485472    0.080259402172166
    60    9.449999999999999    4.050000000000000    6.750000000000000    0.002351643947350    0.003222296125501   -0.000581617527697
    61    9.449999999999999    6.750000000000000    4.050000000000000    0.000576346301064   -0.002557534895130    0.000981726918224
    62    9.449999999999999    6.750000000000000    9.449999999999999   -0.003091093803873   -0.000977422581077   -0.000365254317799
    63    9.449999999999999    9.449999999999999    1.350000000000000    0.109828017713037    0.079873136275729   -0.081563265680386
    64    9.449999999999999    9.449999999999999    6.750000000000000   -0.001699184114126    0.000604148474716   -0.001968582366792
