# Structure data of Hf (2x2x2 conventional) 

16 atoms
1 atom types

0.0 6.3969717026 xlo xhi
0.0 5.5399400017 ylo yhi
0.0 10.1503696442 zlo zhi
-3.1984858513 0.0 0.0 xy xz yz

Masses

1 178.49  # Hf

Atoms  # atomic

1 1 1.5992429704 0.9233233632 1.2687962055
2 1 1.5992429704 0.9233233632 6.3439810276
3 1 -3.1984854765e-09 3.6932934471 1.2687962055
4 1 -3.1984854765e-09 3.6932934471 6.3439810276
5 1 4.7977290136 0.9233233632 1.2687962055
6 1 4.7977290136 0.9233233632 6.3439810276
7 1 3.19848604 3.6932934471 1.2687962055
8 1 3.19848604 3.6932934471 6.3439810276
9 1 3.1984856985e-09 1.8466467208 3.8063886166
10 1 3.1984856985e-09 1.8466467208 8.8815734387
11 1 -1.5992430184 4.6166168878 3.8063886166
12 1 -1.5992430184 4.6166168878 8.8815734387
13 1 3.1984859505 1.8466467208 3.8063886166
14 1 3.1984859505 1.8466467208 8.8815734387
15 1 1.5992429288 4.6166168878 3.8063886166
16 1 1.5992429288 4.6166168878 8.8815734387
