# Structure data of Pt (2x2x2 conventional) 

32 atoms
1 atom types

0.0 7.9535398483 xlo xhi
0.0 7.9535398483 ylo yhi
0.0 7.9535398483 zlo zhi
0.000000    0.000000    0.000000   xy xz yz

Masses

1 195.078  # Pt

Atoms  # atomic

1 1 0.0 0.0 0.0
2 1 0.0 0.0 3.9767699242
3 1 0.0 3.9767699242 0.0
4 1 0.0 3.9767699242 3.9767699242
5 1 3.9767699242 0.0 0.0
6 1 3.9767699242 0.0 3.9767699242
7 1 3.9767699242 3.9767699242 0.0
8 1 3.9767699242 3.9767699242 3.9767699242
9 1 0.0 1.9883849621 1.9883849621
10 1 0.0 1.9883849621 5.9651548862
11 1 0.0 5.9651548862 1.9883849621
12 1 0.0 5.9651548862 5.9651548862
13 1 3.9767699242 1.9883849621 1.9883849621
14 1 3.9767699242 1.9883849621 5.9651548862
15 1 3.9767699242 5.9651548862 1.9883849621
16 1 3.9767699242 5.9651548862 5.9651548862
17 1 1.9883849621 0.0 1.9883849621
18 1 1.9883849621 0.0 5.9651548862
19 1 1.9883849621 3.9767699242 1.9883849621
20 1 1.9883849621 3.9767699242 5.9651548862
21 1 5.9651548862 0.0 1.9883849621
22 1 5.9651548862 0.0 5.9651548862
23 1 5.9651548862 3.9767699242 1.9883849621
24 1 5.9651548862 3.9767699242 5.9651548862
25 1 1.9883849621 1.9883849621 0.0
26 1 1.9883849621 1.9883849621 3.9767699242
27 1 1.9883849621 5.9651548862 0.0
28 1 1.9883849621 5.9651548862 3.9767699242
29 1 5.9651548862 1.9883849621 0.0
30 1 5.9651548862 1.9883849621 3.9767699242
31 1 5.9651548862 5.9651548862 0.0
32 1 5.9651548862 5.9651548862 3.9767699242
