
:LABEL1: Calculations in /home/inukai/WIEN2k/Cu-phonon/1
:LABEL2: on MSI at Fri Nov 11 14:51:20 JST 2022
:LABEL3: using WIEN2k_16.1 (Release 12/12/2016) in /home/inukai/WIEN2k_16
:LABEL4: using the command: run_lapw -ee 0.0032 -fc 1.0

:LABEL1: Calculations in /home/inukai/WIEN2k/Cu-phonon/1
:LABEL2: on MSI at Fri Nov 11 14:51:34 JST 2022
:LABEL3: using WIEN2k_16.1 (Release 12/12/2016) in /home/inukai/WIEN2k_16
:LABEL4: using the command: run_lapw -ec 0.0032 -fc 1.0
 Flat Integration
 New Mode for Coulomb Integral
 Consistent 3/8+Simpson combinations
 Extension of core to zero
 LDM version in phi
 Fifth-order quadrature in outwin


            ---------
:ITE001:  1. ITERATION
            ---------

:NATO :   32 INDEPENDENT AND   32 TOTAL ATOMS IN UNITCELL
       SUBSTANCE: Title                                                       

       LATTICE                      = P   
:POT  : POTENTIAL OPTION EX_PBE EC_PBE VX_PBE VC_PBE
:LAT  : LATTICE CONSTANTS= 13.68639 13.68639 13.68639    1.571    1.571    1.571
:VOL  : UNIT CELL VOLUME =    2563.69498
       MODE OF CALCULATION IS       = RELA
       NON-SPINPOLARIZED CALCULATION
:IFFT  : FFT-parameters:  108  108  108 Factor: 2.00
       ATOMNUMBER=  1 Cu1        VCOUL-ZERO =  0.52685E+00
:EFG001:                        EFG         =    -0.00001   *10**21  V / m**2
                               V20  TOT/SRF=     0.00001     0.00001
                               V22  TOT/SRF=    -0.00001    -0.00001
                               V22M TOT/SRF=    -0.00000    -0.00000
                               V21  TOT/SRF=    -0.00000     0.00000
                               V21M TOT/SRF=    -0.00000    -0.00000

             -0.00001   -0.00000   -0.00000       -0.00001    0.00000    0.00000
             -0.00000    0.00000   -0.00000        0.00000    0.00000    0.00000
             -0.00000   -0.00000    0.00001        0.00000    0.00000    0.00001

         MAIN DIRECTIONS OF THE EFG   1.0000 -0.0000 -0.0000
                                      0.0000  1.0000 -0.0000
                                      0.0000  0.0000  1.0000
:ANG001:  ANGLE WITH OLD X-AXIS =         0.0

:ETA001:                         ASYMM. ETA =     0.15120


       ATOMNUMBER=  2 Cu2        VCOUL-ZERO =  0.52688E+00
:EFG002:                        EFG         =    -0.00000   *10**21  V / m**2
                               V20  TOT/SRF=    -0.00000     0.00000
                               V22  TOT/SRF=     0.00000     0.00000
                               V22M TOT/SRF=    -0.00000     0.00000
                               V21  TOT/SRF=    -0.00000    -0.00000
                               V21M TOT/SRF=    -0.00000     0.00000

              0.00000   -0.00000   -0.00000        0.00000    0.00000    0.00000
             -0.00000    0.00000   -0.00000        0.00000    0.00000    0.00000
             -0.00000   -0.00000   -0.00000        0.00000    0.00000   -0.00000

         MAIN DIRECTIONS OF THE EFG   1.0000  0.0116  0.0000
                                     -0.0116  1.0000  0.0000
                                     -0.0000 -0.0000  1.0000
:ANG002:  ANGLE WITH OLD X-AXIS =         0.7

:ETA002:                         ASYMM. ETA =     0.00000


       ATOMNUMBER=  3 Cu3        VCOUL-ZERO =  0.52688E+00
:EFG003:                        EFG         =     0.00000   *10**21  V / m**2
                               V20  TOT/SRF=    -0.00000     0.00000
                               V22  TOT/SRF=     0.00000     0.00000
                               V22M TOT/SRF=    -0.00000     0.00000
                               V21  TOT/SRF=    -0.00000    -0.00000
                               V21M TOT/SRF=    -0.00000     0.00000

              0.00000   -0.00000   -0.00000        0.00000    0.00000    0.00000
             -0.00000   -0.00000   -0.00000        0.00000   -0.00000    0.00000
             -0.00000   -0.00000   -0.00000        0.00000    0.00000   -0.00000

         MAIN DIRECTIONS OF THE EFG   1.0000  0.0009  0.0000
                                     -0.0009  1.0000  0.0001
                                     -0.0000 -0.0001  1.0000
:ANG003:  ANGLE WITH OLD X-AXIS =         0.1

:ETA003:                         ASYMM. ETA =     0.00000


       ATOMNUMBER=  4 Cu4        VCOUL-ZERO =  0.52688E+00
:EFG004:                        EFG         =    -0.00000   *10**21  V / m**2
                               V20  TOT/SRF=    -0.00000     0.00000
                               V22  TOT/SRF=     0.00000     0.00000
                               V22M TOT/SRF=    -0.00000    -0.00000
                               V21  TOT/SRF=    -0.00000     0.00000
                               V21M TOT/SRF=    -0.00000    -0.00000

              0.00000   -0.00000   -0.00000        0.00000    0.00000    0.00000
             -0.00000    0.00000   -0.00000        0.00000    0.00000    0.00000
             -0.00000   -0.00000   -0.00000        0.00000    0.00000   -0.00000

         MAIN DIRECTIONS OF THE EFG   1.0000  0.0106  0.0000
                                     -0.0106  1.0000  0.0000
                                     -0.0000 -0.0000  1.0000
:ANG004:  ANGLE WITH OLD X-AXIS =         0.6

:ETA004:                         ASYMM. ETA =     0.00000


       ATOMNUMBER=  5 Cu5        VCOUL-ZERO =  0.52687E+00
:EFG005:                        EFG         =     0.00000   *10**21  V / m**2
                               V20  TOT/SRF=    -0.00000    -0.00000
                               V22  TOT/SRF=     0.00000     0.00000
                               V22M TOT/SRF=    -0.00000     0.00000
                               V21  TOT/SRF=     0.00000    -0.00000
                               V21M TOT/SRF=     0.00000     0.00000

              0.00000   -0.00000    0.00000        0.00000    0.00000    0.00000
             -0.00000   -0.00000    0.00000        0.00000   -0.00000    0.00000
              0.00000    0.00000   -0.00000        0.00000    0.00000   -0.00000

         MAIN DIRECTIONS OF THE EFG   1.0000  0.0004 -0.0000
                                     -0.0004  1.0000 -0.0000
                                      0.0000  0.0000  1.0000
:ANG005:  ANGLE WITH OLD X-AXIS =         0.0

:ETA005:                         ASYMM. ETA =     0.62955


       ATOMNUMBER=  6 Cu6        VCOUL-ZERO =  0.52688E+00
:EFG006:                        EFG         =    -0.00000   *10**21  V / m**2
                               V20  TOT/SRF=    -0.00000     0.00000
                               V22  TOT/SRF=    -0.00000    -0.00000
                               V22M TOT/SRF=    -0.00000    -0.00000
                               V21  TOT/SRF=    -0.00000     0.00000
                               V21M TOT/SRF=    -0.00000    -0.00000

              0.00000   -0.00000   -0.00000        0.00000    0.00000    0.00000
             -0.00000    0.00000   -0.00000        0.00000    0.00000    0.00000
             -0.00000   -0.00000   -0.00000        0.00000    0.00000   -0.00000

         MAIN DIRECTIONS OF THE EFG   1.0000 -0.0119  0.0000
                                      0.0119  1.0000  0.0001
                                     -0.0000 -0.0001  1.0000
:ANG006:  ANGLE WITH OLD X-AXIS =         0.7

:ETA006:                         ASYMM. ETA =     0.00000


       ATOMNUMBER=  7 Cu7        VCOUL-ZERO =  0.52688E+00
:EFG007:                        EFG         =    -0.00000   *10**21  V / m**2
                               V20  TOT/SRF=    -0.00000     0.00000
                               V22  TOT/SRF=     0.00000     0.00000
                               V22M TOT/SRF=    -0.00000    -0.00000
                               V21  TOT/SRF=    -0.00000     0.00000
                               V21M TOT/SRF=    -0.00000    -0.00000

              0.00000   -0.00000   -0.00000        0.00000    0.00000    0.00000
             -0.00000    0.00000   -0.00000        0.00000    0.00000    0.00000
             -0.00000   -0.00000   -0.00000        0.00000    0.00000   -0.00000

         MAIN DIRECTIONS OF THE EFG   1.0000  0.0307  0.0000
                                     -0.0307  1.0000  0.0001
                                     -0.0000 -0.0001  1.0000
:ANG007:  ANGLE WITH OLD X-AXIS =         1.8

:ETA007:                         ASYMM. ETA =     0.00000


       ATOMNUMBER=  8 Cu8        VCOUL-ZERO =  0.52688E+00
:EFG008:                        EFG         =    -0.00000   *10**21  V / m**2
                               V20  TOT/SRF=    -0.00000     0.00000
                               V22  TOT/SRF=     0.00000     0.00000
                               V22M TOT/SRF=    -0.00000     0.00000
                               V21  TOT/SRF=    -0.00000    -0.00000
                               V21M TOT/SRF=    -0.00000     0.00000

              0.00000   -0.00000   -0.00000        0.00000    0.00000    0.00000
             -0.00000    0.00000   -0.00000        0.00000    0.00000    0.00000
             -0.00000   -0.00000   -0.00000        0.00000    0.00000   -0.00000

         MAIN DIRECTIONS OF THE EFG   1.0000  0.0423  0.0001
                                     -0.0423  1.0000  0.0000
                                     -0.0001 -0.0000  1.0000
:ANG008:  ANGLE WITH OLD X-AXIS =         2.4

:ETA008:                         ASYMM. ETA =     0.00000


       ATOMNUMBER=  9 Cu9        VCOUL-ZERO =  0.52688E+00
:EFG009:                        EFG         =    -0.00030   *10**21  V / m**2
                               V20  TOT/SRF=    -0.00000    -0.00000
                               V22  TOT/SRF=     0.00000     0.00000
                               V22M TOT/SRF=    -0.00021    -0.00037
                               V21  TOT/SRF=    -0.00021    -0.00037
                               V21M TOT/SRF=    -0.00000    -0.00001

              0.00000   -0.00021   -0.00021        0.00030    0.00000    0.00000
             -0.00021   -0.00000   -0.00000        0.00000   -0.00030    0.00000
             -0.00021   -0.00000   -0.00000        0.00000    0.00000    0.00000

         MAIN DIRECTIONS OF THE EFG   1.0000  1.0000 -0.0021
                                     -0.6996  0.7151 -0.9995
                                     -0.6972  0.7167  1.0000
:ANG009:  ANGLE WITH OLD X-AXIS =        45.0

:ETA009:                         ASYMM. ETA =     0.99010


       ATOMNUMBER= 10 Cu10       VCOUL-ZERO =  0.52688E+00
:EFG010:                        EFG         =    -0.00030   *10**21  V / m**2
                               V20  TOT/SRF=    -0.00000    -0.00000
                               V22  TOT/SRF=     0.00000     0.00000
                               V22M TOT/SRF=    -0.00021    -0.00037
                               V21  TOT/SRF=     0.00021     0.00037
                               V21M TOT/SRF=     0.00000     0.00001

              0.00000   -0.00021    0.00021        0.00030    0.00000    0.00000
             -0.00021   -0.00000    0.00000        0.00000   -0.00030    0.00000
              0.00021    0.00000   -0.00000        0.00000    0.00000    0.00000

         MAIN DIRECTIONS OF THE EFG   1.0000  1.0000  0.0021
                                     -0.6996  0.7151  0.9995
                                      0.6972 -0.7167  1.0000
:ANG010:  ANGLE WITH OLD X-AXIS =        45.0

:ETA010:                         ASYMM. ETA =     0.99010


       ATOMNUMBER= 11 Cu11       VCOUL-ZERO =  0.52688E+00
:EFG011:                        EFG         =    -0.00030   *10**21  V / m**2
                               V20  TOT/SRF=    -0.00000    -0.00000
                               V22  TOT/SRF=     0.00000     0.00000
                               V22M TOT/SRF=     0.00021     0.00037
                               V21  TOT/SRF=    -0.00021    -0.00037
                               V21M TOT/SRF=     0.00000     0.00001

              0.00000    0.00021   -0.00021        0.00030    0.00000    0.00000
              0.00021   -0.00000    0.00000        0.00000   -0.00030    0.00000
             -0.00021    0.00000   -0.00000        0.00000    0.00000    0.00000

         MAIN DIRECTIONS OF THE EFG   1.0000  1.0000 -0.0021
                                      0.6996 -0.7151  0.9995
                                     -0.6972  0.7167  1.0000
:ANG011:  ANGLE WITH OLD X-AXIS =        45.0

:ETA011:                         ASYMM. ETA =     0.99010


       ATOMNUMBER= 12 Cu12       VCOUL-ZERO =  0.52688E+00
:EFG012:                        EFG         =    -0.00030   *10**21  V / m**2
                               V20  TOT/SRF=    -0.00000    -0.00000
                               V22  TOT/SRF=     0.00000     0.00000
                               V22M TOT/SRF=     0.00021     0.00037
                               V21  TOT/SRF=     0.00021     0.00037
                               V21M TOT/SRF=    -0.00000    -0.00001

              0.00000    0.00021    0.00021        0.00030    0.00000    0.00000
              0.00021   -0.00000   -0.00000        0.00000   -0.00030    0.00000
              0.00021   -0.00000   -0.00000        0.00000    0.00000    0.00000

         MAIN DIRECTIONS OF THE EFG   1.0000  1.0000  0.0021
                                      0.6996 -0.7151 -0.9995
                                      0.6972 -0.7167  1.0000
:ANG012:  ANGLE WITH OLD X-AXIS =        45.0

:ETA012:                         ASYMM. ETA =     0.99010


       ATOMNUMBER= 13 Cu13       VCOUL-ZERO =  0.52688E+00
:EFG013:                        EFG         =     0.00001   *10**21  V / m**2
                               V20  TOT/SRF=    -0.00000     0.00000
                               V22  TOT/SRF=    -0.00000     0.00000
                               V22M TOT/SRF=     0.00001     0.00001
                               V21  TOT/SRF=     0.00001     0.00001
                               V21M TOT/SRF=    -0.00000     0.00000

              0.00000    0.00001    0.00001        0.00001    0.00000    0.00000
              0.00001    0.00000   -0.00000        0.00000   -0.00001    0.00000
              0.00001   -0.00000   -0.00000        0.00000    0.00000   -0.00000

         MAIN DIRECTIONS OF THE EFG   1.0000  1.0000  0.0759
                                      0.7292 -0.6876 -0.9997
                                      0.6532 -0.7633  1.0000
:ANG013:  ANGLE WITH OLD X-AXIS =        45.1

:ETA013:                         ASYMM. ETA =     0.96895


       ATOMNUMBER= 14 Cu14       VCOUL-ZERO =  0.52688E+00
:EFG014:                        EFG         =     0.00001   *10**21  V / m**2
                               V20  TOT/SRF=    -0.00000     0.00000
                               V22  TOT/SRF=    -0.00000     0.00000
                               V22M TOT/SRF=     0.00001     0.00001
                               V21  TOT/SRF=    -0.00001    -0.00001
                               V21M TOT/SRF=     0.00000    -0.00000

              0.00000    0.00001   -0.00001        0.00001    0.00000    0.00000
              0.00001    0.00000    0.00000        0.00000   -0.00001    0.00000
             -0.00001    0.00000   -0.00000        0.00000    0.00000   -0.00000

         MAIN DIRECTIONS OF THE EFG   1.0000  1.0000 -0.0759
                                      0.7292 -0.6876  0.9998
                                     -0.6532  0.7633  1.0000
:ANG014:  ANGLE WITH OLD X-AXIS =        45.1

:ETA014:                         ASYMM. ETA =     0.96896


       ATOMNUMBER= 15 Cu15       VCOUL-ZERO =  0.52688E+00
:EFG015:                        EFG         =     0.00001   *10**21  V / m**2
                               V20  TOT/SRF=    -0.00000     0.00000
                               V22  TOT/SRF=    -0.00000     0.00000
                               V22M TOT/SRF=    -0.00001    -0.00001
                               V21  TOT/SRF=     0.00001     0.00001
                               V21M TOT/SRF=     0.00000    -0.00000

              0.00000   -0.00001    0.00001        0.00001    0.00000    0.00000
             -0.00001    0.00000    0.00000        0.00000   -0.00001    0.00000
              0.00001    0.00000   -0.00000        0.00000    0.00000   -0.00000

         MAIN DIRECTIONS OF THE EFG   1.0000  1.0000  0.0759
                                     -0.7293  0.6877  0.9995
                                      0.6531 -0.7632  1.0000
:ANG015:  ANGLE WITH OLD X-AXIS =        45.1

:ETA015:                         ASYMM. ETA =     0.96893


       ATOMNUMBER= 16 Cu16       VCOUL-ZERO =  0.52688E+00
:EFG016:                        EFG         =     0.00001   *10**21  V / m**2
                               V20  TOT/SRF=    -0.00000     0.00000
                               V22  TOT/SRF=    -0.00000     0.00000
                               V22M TOT/SRF=    -0.00001    -0.00001
                               V21  TOT/SRF=    -0.00001    -0.00001
                               V21M TOT/SRF=    -0.00000     0.00000

              0.00000   -0.00001   -0.00001        0.00001    0.00000    0.00000
             -0.00001    0.00000   -0.00000        0.00000   -0.00001    0.00000
             -0.00001   -0.00000   -0.00000        0.00000    0.00000   -0.00000

         MAIN DIRECTIONS OF THE EFG   1.0000  1.0000 -0.0759
                                     -0.7293  0.6877 -0.9995
                                     -0.6531  0.7632  1.0000
:ANG016:  ANGLE WITH OLD X-AXIS =        45.1

:ETA016:                         ASYMM. ETA =     0.96893


       ATOMNUMBER= 17 Cu17       VCOUL-ZERO =  0.52650E+00
:EFG017:                        EFG         =     0.00113   *10**21  V / m**2
                               V20  TOT/SRF=     0.00043     0.00073
                               V22  TOT/SRF=     0.00031     0.00052
                               V22M TOT/SRF=    -0.00000    -0.00000
                               V21  TOT/SRF=     0.00083     0.00141
                               V21M TOT/SRF=    -0.00000    -0.00000

              0.00006   -0.00000    0.00083        0.00113    0.00000    0.00000
             -0.00000   -0.00055   -0.00000        0.00000   -0.00058    0.00000
              0.00083   -0.00000    0.00049        0.00000    0.00000   -0.00055

         MAIN DIRECTIONS OF THE EFG   0.7726  1.0000 -0.0000
                                     -0.0000  0.0000  1.0000
                                      1.0000 -0.7726  0.0000
:ANG017:  ANGLE WITH OLD X-AXIS =        52.3

:ETA017:                         ASYMM. ETA =     0.02522


       ATOMNUMBER= 18 Cu18       VCOUL-ZERO =  0.52650E+00
:EFG018:                        EFG         =     0.00113   *10**21  V / m**2
                               V20  TOT/SRF=     0.00043     0.00073
                               V22  TOT/SRF=     0.00031     0.00052
                               V22M TOT/SRF=    -0.00000     0.00000
                               V21  TOT/SRF=    -0.00083    -0.00141
                               V21M TOT/SRF=     0.00000     0.00000

              0.00006   -0.00000   -0.00083        0.00113    0.00000    0.00000
             -0.00000   -0.00055    0.00000        0.00000   -0.00058    0.00000
             -0.00083    0.00000    0.00049        0.00000    0.00000   -0.00055

         MAIN DIRECTIONS OF THE EFG  -0.7726  1.0000 -0.0000
                                      0.0000  0.0000  1.0000
                                      1.0000  0.7726 -0.0000
:ANG018:  ANGLE WITH OLD X-AXIS =       127.7

:ETA018:                         ASYMM. ETA =     0.02522


       ATOMNUMBER= 19 Cu19       VCOUL-ZERO =  0.52687E+00
:EFG019:                        EFG         =     0.00000   *10**21  V / m**2
                               V20  TOT/SRF=    -0.00000    -0.00000
                               V22  TOT/SRF=    -0.00000    -0.00000
                               V22M TOT/SRF=    -0.00000     0.00000
                               V21  TOT/SRF=     0.00000     0.00000
                               V21M TOT/SRF=    -0.00000     0.00000

             -0.00000   -0.00000    0.00000       -0.00000    0.00000    0.00000
             -0.00000    0.00000   -0.00000        0.00000   -0.00000    0.00000
              0.00000   -0.00000   -0.00000        0.00000    0.00000    0.00000

         MAIN DIRECTIONS OF THE EFG   1.0000  0.8112 -0.0001
                                      0.0001  0.0001  1.0000
                                     -0.8112  1.0000 -0.0000
:ANG019:  ANGLE WITH OLD X-AXIS =        39.1

:ETA019:                         ASYMM. ETA =     0.49095


       ATOMNUMBER= 20 Cu20       VCOUL-ZERO =  0.52687E+00
:EFG020:                        EFG         =     0.00000   *10**21  V / m**2
                               V20  TOT/SRF=    -0.00000    -0.00000
                               V22  TOT/SRF=    -0.00000    -0.00000
                               V22M TOT/SRF=    -0.00000    -0.00000
                               V21  TOT/SRF=    -0.00000    -0.00000
                               V21M TOT/SRF=    -0.00000    -0.00000

             -0.00000   -0.00000   -0.00000       -0.00000    0.00000    0.00000
             -0.00000    0.00000   -0.00000        0.00000   -0.00000    0.00000
             -0.00000   -0.00000   -0.00000        0.00000    0.00000    0.00000

         MAIN DIRECTIONS OF THE EFG   1.0000 -0.8112 -0.0001
                                      0.0001 -0.0001  1.0000
                                      0.8112  1.0000  0.0000
:ANG020:  ANGLE WITH OLD X-AXIS =        39.0

:ETA020:                         ASYMM. ETA =     0.49093


       ATOMNUMBER= 21 Cu21       VCOUL-ZERO =  0.52724E+00
:EFG021:                        EFG         =    -0.00112   *10**21  V / m**2
                               V20  TOT/SRF=    -0.00042    -0.00071
                               V22  TOT/SRF=    -0.00030    -0.00051
                               V22M TOT/SRF=    -0.00000     0.00000
                               V21  TOT/SRF=     0.00082     0.00139
                               V21M TOT/SRF=    -0.00000     0.00000

             -0.00006   -0.00000    0.00082       -0.00112    0.00000    0.00000
             -0.00000    0.00054   -0.00000        0.00000    0.00057    0.00000
              0.00082   -0.00000   -0.00048        0.00000    0.00000    0.00054

         MAIN DIRECTIONS OF THE EFG  -0.7782  1.0000  0.0000
                                     -0.0000 -0.0000  1.0000
                                      1.0000  0.7782  0.0000
:ANG021:  ANGLE WITH OLD X-AXIS =       127.9

:ETA021:                         ASYMM. ETA =     0.02494


       ATOMNUMBER= 22 Cu22       VCOUL-ZERO =  0.52724E+00
:EFG022:                        EFG         =    -0.00112   *10**21  V / m**2
                               V20  TOT/SRF=    -0.00042    -0.00071
                               V22  TOT/SRF=    -0.00030    -0.00051
                               V22M TOT/SRF=    -0.00000    -0.00000
                               V21  TOT/SRF=    -0.00082    -0.00139
                               V21M TOT/SRF=     0.00000    -0.00000

             -0.00006   -0.00000   -0.00082       -0.00112    0.00000    0.00000
             -0.00000    0.00054    0.00000        0.00000    0.00057    0.00000
             -0.00082    0.00000   -0.00048        0.00000    0.00000    0.00054

         MAIN DIRECTIONS OF THE EFG   0.7782  1.0000  0.0000
                                      0.0000 -0.0000  1.0000
                                      1.0000 -0.7782 -0.0000
:ANG022:  ANGLE WITH OLD X-AXIS =        52.1

:ETA022:                         ASYMM. ETA =     0.02494


       ATOMNUMBER= 23 Cu23       VCOUL-ZERO =  0.52688E+00
:EFG023:                        EFG         =    -0.00000   *10**21  V / m**2
                               V20  TOT/SRF=     0.00000     0.00000
                               V22  TOT/SRF=     0.00000     0.00000
                               V22M TOT/SRF=    -0.00000    -0.00000
                               V21  TOT/SRF=     0.00000     0.00000
                               V21M TOT/SRF=    -0.00000    -0.00000

              0.00000   -0.00000    0.00000        0.00000    0.00000    0.00000
             -0.00000   -0.00000   -0.00000        0.00000    0.00000    0.00000
              0.00000   -0.00000    0.00000        0.00000    0.00000   -0.00000

         MAIN DIRECTIONS OF THE EFG   1.0000 -0.3881  0.0001
                                     -0.0001  0.0001  1.0000
                                      0.3881  1.0000 -0.0000
:ANG023:  ANGLE WITH OLD X-AXIS =        21.2

:ETA023:                         ASYMM. ETA =     0.85163


       ATOMNUMBER= 24 Cu24       VCOUL-ZERO =  0.52688E+00
:EFG024:                        EFG         =    -0.00000   *10**21  V / m**2
                               V20  TOT/SRF=     0.00000     0.00000
                               V22  TOT/SRF=     0.00000     0.00000
                               V22M TOT/SRF=    -0.00000     0.00000
                               V21  TOT/SRF=    -0.00000    -0.00000
                               V21M TOT/SRF=    -0.00000     0.00000

              0.00000   -0.00000   -0.00000        0.00000    0.00000    0.00000
             -0.00000   -0.00000   -0.00000        0.00000    0.00000    0.00000
             -0.00000   -0.00000    0.00000        0.00000    0.00000   -0.00000

         MAIN DIRECTIONS OF THE EFG   1.0000  0.3881  0.0001
                                     -0.0001 -0.0001  1.0000
                                     -0.3881  1.0000  0.0000
:ANG024:  ANGLE WITH OLD X-AXIS =        21.2

:ETA024:                         ASYMM. ETA =     0.85158


       ATOMNUMBER= 25 Cu25       VCOUL-ZERO =  0.52650E+00
:EFG025:                        EFG         =     0.00113   *10**21  V / m**2
                               V20  TOT/SRF=    -0.00048    -0.00081
                               V22  TOT/SRF=    -0.00022    -0.00038
                               V22M TOT/SRF=     0.00083     0.00141
                               V21  TOT/SRF=     0.00000     0.00000
                               V21M TOT/SRF=    -0.00000    -0.00000

              0.00006    0.00083    0.00000        0.00113    0.00000    0.00000
              0.00083    0.00049   -0.00000        0.00000   -0.00058    0.00000
              0.00000   -0.00000   -0.00055        0.00000    0.00000   -0.00055

         MAIN DIRECTIONS OF THE EFG   0.7724  1.0000  0.0000
                                      1.0000 -0.7724 -0.0000
                                     -0.0000 -0.0000  1.0000
:ANG025:  ANGLE WITH OLD X-AXIS =        52.3

:ETA025:                         ASYMM. ETA =     0.02547


       ATOMNUMBER= 26 Cu26       VCOUL-ZERO =  0.52687E+00
:EFG026:                        EFG         =     0.00000   *10**21  V / m**2
                               V20  TOT/SRF=     0.00000     0.00001
                               V22  TOT/SRF=    -0.00000    -0.00000
                               V22M TOT/SRF=     0.00000     0.00000
                               V21  TOT/SRF=    -0.00000    -0.00000
                               V21M TOT/SRF=     0.00000     0.00000

             -0.00000    0.00000   -0.00000       -0.00000    0.00000    0.00000
              0.00000   -0.00000    0.00000        0.00000   -0.00000    0.00000
             -0.00000    0.00000    0.00000        0.00000    0.00000    0.00000

         MAIN DIRECTIONS OF THE EFG   1.0000  0.5322 -0.0000
                                     -0.5322  1.0000  0.0000
                                      0.0000 -0.0000  1.0000
:ANG026:  ANGLE WITH OLD X-AXIS =        28.0

:ETA026:                         ASYMM. ETA =     0.77064


       ATOMNUMBER= 27 Cu27       VCOUL-ZERO =  0.52650E+00
:EFG027:                        EFG         =     0.00113   *10**21  V / m**2
                               V20  TOT/SRF=    -0.00048    -0.00081
                               V22  TOT/SRF=    -0.00022    -0.00038
                               V22M TOT/SRF=    -0.00083    -0.00141
                               V21  TOT/SRF=     0.00000    -0.00000
                               V21M TOT/SRF=     0.00000     0.00000

              0.00006   -0.00083    0.00000        0.00113    0.00000    0.00000
             -0.00083    0.00049    0.00000        0.00000   -0.00058    0.00000
              0.00000    0.00000   -0.00055        0.00000    0.00000   -0.00055

         MAIN DIRECTIONS OF THE EFG  -0.7724  1.0000  0.0000
                                      1.0000  0.7724  0.0000
                                      0.0000 -0.0000  1.0000
:ANG027:  ANGLE WITH OLD X-AXIS =       127.7

:ETA027:                         ASYMM. ETA =     0.02547


       ATOMNUMBER= 28 Cu28       VCOUL-ZERO =  0.52687E+00
:EFG028:                        EFG         =     0.00000   *10**21  V / m**2
                               V20  TOT/SRF=     0.00000     0.00001
                               V22  TOT/SRF=    -0.00000    -0.00000
                               V22M TOT/SRF=    -0.00000    -0.00000
                               V21  TOT/SRF=     0.00000     0.00000
                               V21M TOT/SRF=     0.00000    -0.00000

             -0.00000   -0.00000    0.00000       -0.00000    0.00000    0.00000
             -0.00000   -0.00000    0.00000        0.00000   -0.00000    0.00000
              0.00000    0.00000    0.00000        0.00000    0.00000    0.00000

         MAIN DIRECTIONS OF THE EFG   1.0000 -0.5325  0.0000
                                      0.5325  1.0000 -0.0000
                                     -0.0000  0.0000  1.0000
:ANG028:  ANGLE WITH OLD X-AXIS =        28.0

:ETA028:                         ASYMM. ETA =     0.77127


       ATOMNUMBER= 29 Cu29       VCOUL-ZERO =  0.52724E+00
:EFG029:                        EFG         =    -0.00112   *10**21  V / m**2
                               V20  TOT/SRF=     0.00047     0.00080
                               V22  TOT/SRF=     0.00021     0.00036
                               V22M TOT/SRF=     0.00082     0.00139
                               V21  TOT/SRF=     0.00000    -0.00000
                               V21M TOT/SRF=     0.00000     0.00000

             -0.00007    0.00082    0.00000       -0.00112    0.00000    0.00000
              0.00082   -0.00048    0.00000        0.00000    0.00057    0.00000
              0.00000    0.00000    0.00054        0.00000    0.00000    0.00054

         MAIN DIRECTIONS OF THE EFG  -0.7792  1.0000 -0.0000
                                      1.0000  0.7792 -0.0000
                                     -0.0000  0.0000  1.0000
:ANG029:  ANGLE WITH OLD X-AXIS =       127.9

:ETA029:                         ASYMM. ETA =     0.02628


       ATOMNUMBER= 30 Cu30       VCOUL-ZERO =  0.52688E+00
:EFG030:                        EFG         =    -0.00000   *10**21  V / m**2
                               V20  TOT/SRF=    -0.00000    -0.00000
                               V22  TOT/SRF=     0.00000     0.00000
                               V22M TOT/SRF=     0.00000     0.00000
                               V21  TOT/SRF=     0.00000     0.00000
                               V21M TOT/SRF=     0.00000    -0.00000

              0.00000    0.00000    0.00000        0.00000    0.00000    0.00000
              0.00000    0.00000    0.00000        0.00000    0.00000    0.00000
              0.00000    0.00000   -0.00000        0.00000    0.00000   -0.00000

         MAIN DIRECTIONS OF THE EFG   1.0000 -0.5395 -0.0000
                                      0.5395  1.0000 -0.0000
                                      0.0000 -0.0000  1.0000
:ANG030:  ANGLE WITH OLD X-AXIS =        28.3

:ETA030:                         ASYMM. ETA =     0.54406


       ATOMNUMBER= 31 Cu31       VCOUL-ZERO =  0.52724E+00
:EFG031:                        EFG         =    -0.00112   *10**21  V / m**2
                               V20  TOT/SRF=     0.00047     0.00080
                               V22  TOT/SRF=     0.00021     0.00036
                               V22M TOT/SRF=    -0.00082    -0.00139
                               V21  TOT/SRF=     0.00000     0.00000
                               V21M TOT/SRF=    -0.00000    -0.00000

             -0.00007   -0.00082    0.00000       -0.00112    0.00000    0.00000
             -0.00082   -0.00048   -0.00000        0.00000    0.00057    0.00000
              0.00000   -0.00000    0.00054        0.00000    0.00000    0.00054

         MAIN DIRECTIONS OF THE EFG   0.7792  1.0000 -0.0000
                                      1.0000 -0.7792  0.0000
                                     -0.0000  0.0000  1.0000
:ANG031:  ANGLE WITH OLD X-AXIS =        52.1

:ETA031:                         ASYMM. ETA =     0.02628


       ATOMNUMBER= 32 Cu32       VCOUL-ZERO =  0.52688E+00
:EFG032:                        EFG         =    -0.00000   *10**21  V / m**2
                               V20  TOT/SRF=    -0.00000    -0.00000
                               V22  TOT/SRF=     0.00000     0.00000
                               V22M TOT/SRF=    -0.00000    -0.00000
                               V21  TOT/SRF=    -0.00000    -0.00000
                               V21M TOT/SRF=     0.00000     0.00000

              0.00000   -0.00000   -0.00000        0.00000    0.00000    0.00000
             -0.00000    0.00000    0.00000        0.00000    0.00000    0.00000
             -0.00000    0.00000   -0.00000        0.00000    0.00000   -0.00000

         MAIN DIRECTIONS OF THE EFG   1.0000  0.5399  0.0000
                                     -0.5399  1.0000 -0.0000
                                     -0.0000  0.0000  1.0000
:ANG032:  ANGLE WITH OLD X-AXIS =        28.4

:ETA032:                         ASYMM. ETA =     0.54456


     HELLMANN-FEYNMAN-FORCE IN mRy/a.u. = |F|  Fx       Fy             Fz
:FHF001:   1.ATOM     23.242522234489    -23.242522234489      0.000000399367      0.000001885823

     HELLMANN-FEYNMAN-FORCE IN mRy/a.u. = |F|  Fx       Fy             Fz
:FHF002:   2.ATOM      0.064363464927     -0.064363464899     -0.000000108130     -0.000001889010

     HELLMANN-FEYNMAN-FORCE IN mRy/a.u. = |F|  Fx       Fy             Fz
:FHF003:   3.ATOM      0.063655602447     -0.063655602419     -0.000000107018     -0.000001888980

     HELLMANN-FEYNMAN-FORCE IN mRy/a.u. = |F|  Fx       Fy             Fz
:FHF004:   4.ATOM      0.000929232764     -0.000929230845      0.000000135386      0.000001883655

     HELLMANN-FEYNMAN-FORCE IN mRy/a.u. = |F|  Fx       Fy             Fz
:FHF005:   5.ATOM      0.677341357553      0.677341357550     -0.000000155221     -0.000001886623

     HELLMANN-FEYNMAN-FORCE IN mRy/a.u. = |F|  Fx       Fy             Fz
:FHF006:   6.ATOM      0.007904492668      0.007904492443      0.000000119657      0.000001883708

     HELLMANN-FEYNMAN-FORCE IN mRy/a.u. = |F|  Fx       Fy             Fz
:FHF007:   7.ATOM      0.007552967365      0.007552967129      0.000000119153      0.000001883349

     HELLMANN-FEYNMAN-FORCE IN mRy/a.u. = |F|  Fx       Fy             Fz
:FHF008:   8.ATOM      0.000037342769      0.000037294741     -0.000000126257     -0.000001889124

     HELLMANN-FEYNMAN-FORCE IN mRy/a.u. = |F|  Fx       Fy             Fz
:FHF009:   9.ATOM      1.011834920243     -1.011651593278     -0.013220583073     -0.014006278077

     HELLMANN-FEYNMAN-FORCE IN mRy/a.u. = |F|  Fx       Fy             Fz
:FHF010:  10.ATOM      1.011838802730     -1.011655480001     -0.013220314864      0.014006276033

     HELLMANN-FEYNMAN-FORCE IN mRy/a.u. = |F|  Fx       Fy             Fz
:FHF011:  11.ATOM      1.011838762762     -1.011655487799      0.013220649773     -0.014002508838

     HELLMANN-FEYNMAN-FORCE IN mRy/a.u. = |F|  Fx       Fy             Fz
:FHF012:  12.ATOM      1.011834865353     -1.011651593365      0.013220376708      0.014002500683

     HELLMANN-FEYNMAN-FORCE IN mRy/a.u. = |F|  Fx       Fy             Fz
:FHF013:  13.ATOM      0.040380137001      0.040375486907     -0.000453067901     -0.000412614441

     HELLMANN-FEYNMAN-FORCE IN mRy/a.u. = |F|  Fx       Fy             Fz
:FHF014:  14.ATOM      0.040384081926      0.040379429491     -0.000453322099      0.000412608871

     HELLMANN-FEYNMAN-FORCE IN mRy/a.u. = |F|  Fx       Fy             Fz
:FHF015:  15.ATOM      0.040384118919      0.040379430771      0.000453048628     -0.000416387274

     HELLMANN-FEYNMAN-FORCE IN mRy/a.u. = |F|  Fx       Fy             Fz
:FHF016:  16.ATOM      0.040380177981      0.040375486579      0.000453302985      0.000416381724

     HELLMANN-FEYNMAN-FORCE IN mRy/a.u. = |F|  Fx       Fy             Fz
:FHF017:  17.ATOM      5.496060204010      3.337324213540      0.000000135069      4.366800299970

     HELLMANN-FEYNMAN-FORCE IN mRy/a.u. = |F|  Fx       Fy             Fz
:FHF018:  18.ATOM      5.496062586889      3.337328129130     -0.000000162225     -4.366800306577

     HELLMANN-FEYNMAN-FORCE IN mRy/a.u. = |F|  Fx       Fy             Fz
:FHF019:  19.ATOM      0.012275297434      0.006168540285     -0.000000119357      0.010612824216

     HELLMANN-FEYNMAN-FORCE IN mRy/a.u. = |F|  Fx       Fy             Fz
:FHF020:  20.ATOM      0.012273324867      0.006164605268      0.000000125421     -0.010612829273

     HELLMANN-FEYNMAN-FORCE IN mRy/a.u. = |F|  Fx       Fy             Fz
:FHF021:  21.ATOM      5.400118038341      3.291446698649     -0.000000170309     -4.281080874963

     HELLMANN-FEYNMAN-FORCE IN mRy/a.u. = |F|  Fx       Fy             Fz
:FHF022:  22.ATOM      5.400115648756      3.291442783357      0.000000136112      4.281080870975

     HELLMANN-FEYNMAN-FORCE IN mRy/a.u. = |F|  Fx       Fy             Fz
:FHF023:  23.ATOM      0.013483093823      0.006881572228      0.000000127804     -0.011594730816

     HELLMANN-FEYNMAN-FORCE IN mRy/a.u. = |F|  Fx       Fy             Fz
:FHF024:  24.ATOM      0.013485097751      0.006885506725     -0.000000119759      0.011594725460

     HELLMANN-FEYNMAN-FORCE IN mRy/a.u. = |F|  Fx       Fy             Fz
:FHF025:  25.ATOM      5.495636757971      3.335263886467      4.367841364242      0.000001877307

     HELLMANN-FEYNMAN-FORCE IN mRy/a.u. = |F|  Fx       Fy             Fz
:FHF026:  26.ATOM      0.012740685062      0.006358113502      0.011040808167     -0.000001888180

     HELLMANN-FEYNMAN-FORCE IN mRy/a.u. = |F|  Fx       Fy             Fz
:FHF027:  27.ATOM      5.495639134804      3.335267751800     -4.367841403232     -0.000001887990

     HELLMANN-FEYNMAN-FORCE IN mRy/a.u. = |F|  Fx       Fy             Fz
:FHF028:  28.ATOM      0.012738711428      0.006354169420     -0.011040801432      0.000001883529

     HELLMANN-FEYNMAN-FORCE IN mRy/a.u. = |F|  Fx       Fy             Fz
:FHF029:  29.ATOM      5.398438352641      3.291599417524     -4.278844461045     -0.000001889289

     HELLMANN-FEYNMAN-FORCE IN mRy/a.u. = |F|  Fx       Fy             Fz
:FHF030:  30.ATOM      0.013612587963      0.006809495349     -0.011786997946      0.000001884236

     HELLMANN-FEYNMAN-FORCE IN mRy/a.u. = |F|  Fx       Fy             Fz
:FHF031:  31.ATOM      5.398435966365      3.291595554001      4.278844422483      0.000001889865

     HELLMANN-FEYNMAN-FORCE IN mRy/a.u. = |F|  Fx       Fy             Fz
:FHF032:  32.ATOM      0.013614567208      0.006813439357      0.011787004744     -0.000001889934

:FIT001: LUSE= 13 SIGMA OF V-XC FIT FOR ATOM  1  0.9787419E-03
:FIT001: LUSE= 13 SIGMA OF V-XC FIT FOR ATOM  1  0.9787419E-03
:FIT002: LUSE= 13 SIGMA OF V-XC FIT FOR ATOM  2  0.9388987E-03
:FIT002: LUSE= 13 SIGMA OF V-XC FIT FOR ATOM  2  0.9388987E-03
:FIT003: LUSE= 13 SIGMA OF V-XC FIT FOR ATOM  3  0.9392362E-03
:FIT003: LUSE= 13 SIGMA OF V-XC FIT FOR ATOM  3  0.9392362E-03
:FIT004: LUSE= 13 SIGMA OF V-XC FIT FOR ATOM  4  0.9389554E-03
:FIT004: LUSE= 13 SIGMA OF V-XC FIT FOR ATOM  4  0.9389554E-03
:FIT005: LUSE= 13 SIGMA OF V-XC FIT FOR ATOM  5  0.9107283E-03
:FIT005: LUSE= 13 SIGMA OF V-XC FIT FOR ATOM  5  0.9107283E-03
:FIT006: LUSE= 13 SIGMA OF V-XC FIT FOR ATOM  6  0.9386085E-03
:FIT006: LUSE= 13 SIGMA OF V-XC FIT FOR ATOM  6  0.9386085E-03
:FIT007: LUSE= 13 SIGMA OF V-XC FIT FOR ATOM  7  0.9384497E-03
:FIT007: LUSE= 13 SIGMA OF V-XC FIT FOR ATOM  7  0.9384497E-03
:FIT008: LUSE= 13 SIGMA OF V-XC FIT FOR ATOM  8  0.9389720E-03
:FIT008: LUSE= 13 SIGMA OF V-XC FIT FOR ATOM  8  0.9389720E-03
:FIT009: LUSE= 13 SIGMA OF V-XC FIT FOR ATOM  9  0.9440615E-03
:FIT009: LUSE= 13 SIGMA OF V-XC FIT FOR ATOM  9  0.9440615E-03
:FIT010: LUSE= 13 SIGMA OF V-XC FIT FOR ATOM 10  0.9440615E-03
:FIT010: LUSE= 13 SIGMA OF V-XC FIT FOR ATOM 10  0.9440615E-03
:FIT011: LUSE= 13 SIGMA OF V-XC FIT FOR ATOM 11  0.9440615E-03
:FIT011: LUSE= 13 SIGMA OF V-XC FIT FOR ATOM 11  0.9440615E-03
:FIT012: LUSE= 13 SIGMA OF V-XC FIT FOR ATOM 12  0.9440615E-03
:FIT012: LUSE= 13 SIGMA OF V-XC FIT FOR ATOM 12  0.9440615E-03
:FIT013: LUSE= 13 SIGMA OF V-XC FIT FOR ATOM 13  0.9391782E-03
:FIT013: LUSE= 13 SIGMA OF V-XC FIT FOR ATOM 13  0.9391782E-03
:FIT014: LUSE= 13 SIGMA OF V-XC FIT FOR ATOM 14  0.9391782E-03
:FIT014: LUSE= 13 SIGMA OF V-XC FIT FOR ATOM 14  0.9391782E-03
:FIT015: LUSE= 13 SIGMA OF V-XC FIT FOR ATOM 15  0.9391782E-03
:FIT015: LUSE= 13 SIGMA OF V-XC FIT FOR ATOM 15  0.9391782E-03
:FIT016: LUSE= 13 SIGMA OF V-XC FIT FOR ATOM 16  0.9391782E-03
:FIT016: LUSE= 13 SIGMA OF V-XC FIT FOR ATOM 16  0.9391782E-03
:FIT017: LUSE= 13 SIGMA OF V-XC FIT FOR ATOM 17  0.9386994E-03
:FIT017: LUSE= 13 SIGMA OF V-XC FIT FOR ATOM 17  0.9386994E-03
:FIT018: LUSE= 13 SIGMA OF V-XC FIT FOR ATOM 18  0.9386994E-03
:FIT018: LUSE= 13 SIGMA OF V-XC FIT FOR ATOM 18  0.9386994E-03
:FIT019: LUSE= 13 SIGMA OF V-XC FIT FOR ATOM 19  0.9396601E-03
:FIT019: LUSE= 13 SIGMA OF V-XC FIT FOR ATOM 19  0.9396601E-03
:FIT020: LUSE= 13 SIGMA OF V-XC FIT FOR ATOM 20  0.9396601E-03
:FIT020: LUSE= 13 SIGMA OF V-XC FIT FOR ATOM 20  0.9396601E-03
:FIT021: LUSE= 13 SIGMA OF V-XC FIT FOR ATOM 21  0.9610187E-03
:FIT021: LUSE= 13 SIGMA OF V-XC FIT FOR ATOM 21  0.9610187E-03
:FIT022: LUSE= 13 SIGMA OF V-XC FIT FOR ATOM 22  0.9610187E-03
:FIT022: LUSE= 13 SIGMA OF V-XC FIT FOR ATOM 22  0.9610187E-03
:FIT023: LUSE= 13 SIGMA OF V-XC FIT FOR ATOM 23  0.9383113E-03
:FIT023: LUSE= 13 SIGMA OF V-XC FIT FOR ATOM 23  0.9383113E-03
:FIT024: LUSE= 13 SIGMA OF V-XC FIT FOR ATOM 24  0.9383113E-03
:FIT024: LUSE= 13 SIGMA OF V-XC FIT FOR ATOM 24  0.9383113E-03
:FIT025: LUSE= 13 SIGMA OF V-XC FIT FOR ATOM 25  0.9267701E-03
:FIT025: LUSE= 13 SIGMA OF V-XC FIT FOR ATOM 25  0.9267701E-03
:FIT026: LUSE= 13 SIGMA OF V-XC FIT FOR ATOM 26  0.9386933E-03
:FIT026: LUSE= 13 SIGMA OF V-XC FIT FOR ATOM 26  0.9386933E-03
:FIT027: LUSE= 13 SIGMA OF V-XC FIT FOR ATOM 27  0.9267701E-03
:FIT027: LUSE= 13 SIGMA OF V-XC FIT FOR ATOM 27  0.9267701E-03
:FIT028: LUSE= 13 SIGMA OF V-XC FIT FOR ATOM 28  0.9386933E-03
:FIT028: LUSE= 13 SIGMA OF V-XC FIT FOR ATOM 28  0.9386933E-03
:FIT029: LUSE= 13 SIGMA OF V-XC FIT FOR ATOM 29  0.9523552E-03
:FIT029: LUSE= 13 SIGMA OF V-XC FIT FOR ATOM 29  0.9523552E-03
:FIT030: LUSE= 13 SIGMA OF V-XC FIT FOR ATOM 30  0.9388121E-03
:FIT030: LUSE= 13 SIGMA OF V-XC FIT FOR ATOM 30  0.9388121E-03
:FIT031: LUSE= 13 SIGMA OF V-XC FIT FOR ATOM 31  0.9523552E-03
:FIT031: LUSE= 13 SIGMA OF V-XC FIT FOR ATOM 31  0.9523552E-03
:FIT032: LUSE= 13 SIGMA OF V-XC FIT FOR ATOM 32  0.9388121E-03
:FIT032: LUSE= 13 SIGMA OF V-XC FIT FOR ATOM 32  0.9388121E-03
:DEN  : DENSITY INTEGRAL  =        -45294.56555438   (Ry)
       ELS_POTENTIAL_AT Z=0 and Z=0.5:  -0.54177  -0.54177
       ELS_POTENTIAL_AT Y=0 and Y=0.5:  -0.54178  -0.54178
:VZERO:v0,v0c,v0x  -1.43334  -0.54177  -0.89157 v5,v5c,v5x  -1.43335  -0.54177  -0.89158
:VZERY:v0,v0c,v0x  -1.43335  -0.54178  -0.89157 v5,v5c,v5x  -1.43335  -0.54178  -0.89158
:VZERX:v0,v0c,v0x  -1.43329  -0.54172  -0.89157 v5,v5c,v5x  -1.43335  -0.54178  -0.89158
:LMAX-WF:   10   Non-Spherical LMAX:   4

          ATOMIC SPHERE DEPENDENT PARAMETERS FOR ATOM  Cu1       
:e__0001: OVERALL ENERGY PARAMETER IS    0.3000
          OVERALL BASIS SET ON ATOM IS LAPW
:E1_0001: E( 1)=    0.3000
             APW+lo
:E1_0001: E( 1)=   -4.6356   E(BOTTOM)=   -4.660   E(TOP)=   -4.611  1  2   161
             LOCAL ORBITAL
:E2_0001: E( 2)=    0.2930   E(BOTTOM)=    0.080   E(TOP)=    0.506  0  1   119
             APW+lo
:E0_0001: E( 0)=    0.3000
             APW+lo

          ATOMIC SPHERE DEPENDENT PARAMETERS FOR ATOM  Cu2       
:e__0002: OVERALL ENERGY PARAMETER IS    0.3000
          OVERALL BASIS SET ON ATOM IS LAPW
:E1_0002: E( 1)=    0.3000
             APW+lo
:E1_0002: E( 1)=   -4.6355   E(BOTTOM)=   -4.660   E(TOP)=   -4.611  1  2   163
             LOCAL ORBITAL
:E2_0002: E( 2)=    0.2930   E(BOTTOM)=    0.080   E(TOP)=    0.506  0  1   114
             APW+lo
:E0_0002: E( 0)=    0.3000
             APW+lo

          ATOMIC SPHERE DEPENDENT PARAMETERS FOR ATOM  Cu3       
:e__0003: OVERALL ENERGY PARAMETER IS    0.3000
          OVERALL BASIS SET ON ATOM IS LAPW
:E1_0003: E( 1)=    0.3000
             APW+lo
:E1_0003: E( 1)=   -4.6355   E(BOTTOM)=   -4.660   E(TOP)=   -4.611  1  2   165
             LOCAL ORBITAL
:E2_0003: E( 2)=    0.2930   E(BOTTOM)=    0.080   E(TOP)=    0.506  0  1   116
             APW+lo
:E0_0003: E( 0)=    0.3000
             APW+lo

          ATOMIC SPHERE DEPENDENT PARAMETERS FOR ATOM  Cu4       
:e__0004: OVERALL ENERGY PARAMETER IS    0.3000
          OVERALL BASIS SET ON ATOM IS LAPW
:E1_0004: E( 1)=    0.3000
             APW+lo
:E1_0004: E( 1)=   -4.6355   E(BOTTOM)=   -4.660   E(TOP)=   -4.611  1  2   162
             LOCAL ORBITAL
:E2_0004: E( 2)=    0.2930   E(BOTTOM)=    0.080   E(TOP)=    0.506  0  1   115
             APW+lo
:E0_0004: E( 0)=    0.3000
             APW+lo

          ATOMIC SPHERE DEPENDENT PARAMETERS FOR ATOM  Cu5       
:e__0005: OVERALL ENERGY PARAMETER IS    0.3000
          OVERALL BASIS SET ON ATOM IS LAPW
:E1_0005: E( 1)=    0.3000
             APW+lo
:E1_0005: E( 1)=   -4.6355   E(BOTTOM)=   -4.660   E(TOP)=   -4.611  1  2   163
             LOCAL ORBITAL
:E2_0005: E( 2)=    0.2930   E(BOTTOM)=    0.080   E(TOP)=    0.506  0  1   115
             APW+lo
:E0_0005: E( 0)=    0.3000
             APW+lo

          ATOMIC SPHERE DEPENDENT PARAMETERS FOR ATOM  Cu6       
:e__0006: OVERALL ENERGY PARAMETER IS    0.3000
          OVERALL BASIS SET ON ATOM IS LAPW
:E1_0006: E( 1)=    0.3000
             APW+lo
:E1_0006: E( 1)=   -4.6355   E(BOTTOM)=   -4.660   E(TOP)=   -4.611  1  2   162
             LOCAL ORBITAL
:E2_0006: E( 2)=    0.2930   E(BOTTOM)=    0.080   E(TOP)=    0.506  0  1   114
             APW+lo
:E0_0006: E( 0)=    0.3000
             APW+lo

          ATOMIC SPHERE DEPENDENT PARAMETERS FOR ATOM  Cu7       
:e__0007: OVERALL ENERGY PARAMETER IS    0.3000
          OVERALL BASIS SET ON ATOM IS LAPW
:E1_0007: E( 1)=    0.3000
             APW+lo
:E1_0007: E( 1)=   -4.6355   E(BOTTOM)=   -4.660   E(TOP)=   -4.611  1  2   162
             LOCAL ORBITAL
:E2_0007: E( 2)=    0.2930   E(BOTTOM)=    0.080   E(TOP)=    0.506  0  1   114
             APW+lo
:E0_0007: E( 0)=    0.3000
             APW+lo

          ATOMIC SPHERE DEPENDENT PARAMETERS FOR ATOM  Cu8       
:e__0008: OVERALL ENERGY PARAMETER IS    0.3000
          OVERALL BASIS SET ON ATOM IS LAPW
:E1_0008: E( 1)=    0.3000
             APW+lo
:E1_0008: E( 1)=   -4.6355   E(BOTTOM)=   -4.660   E(TOP)=   -4.611  1  2   163
             LOCAL ORBITAL
:E2_0008: E( 2)=    0.2930   E(BOTTOM)=    0.080   E(TOP)=    0.506  0  1   114
             APW+lo
:E0_0008: E( 0)=    0.3000
             APW+lo

          ATOMIC SPHERE DEPENDENT PARAMETERS FOR ATOM  Cu9       
:e__0009: OVERALL ENERGY PARAMETER IS    0.3000
          OVERALL BASIS SET ON ATOM IS LAPW
:E1_0009: E( 1)=    0.3000
             APW+lo
:E1_0009: E( 1)=   -4.6355   E(BOTTOM)=   -4.660   E(TOP)=   -4.611  1  2   163
             LOCAL ORBITAL
:E2_0009: E( 2)=    0.2930   E(BOTTOM)=    0.080   E(TOP)=    0.506  0  1   115
             APW+lo
:E0_0009: E( 0)=    0.3000
             APW+lo

          ATOMIC SPHERE DEPENDENT PARAMETERS FOR ATOM  Cu10      
:e__0010: OVERALL ENERGY PARAMETER IS    0.3000
          OVERALL BASIS SET ON ATOM IS LAPW
:E1_0010: E( 1)=    0.3000
             APW+lo
:E1_0010: E( 1)=   -4.6355   E(BOTTOM)=   -4.660   E(TOP)=   -4.611  1  2   163
             LOCAL ORBITAL
:E2_0010: E( 2)=    0.2930   E(BOTTOM)=    0.080   E(TOP)=    0.506  0  1   115
             APW+lo
:E0_0010: E( 0)=    0.3000
             APW+lo

          ATOMIC SPHERE DEPENDENT PARAMETERS FOR ATOM  Cu11      
:e__0011: OVERALL ENERGY PARAMETER IS    0.3000
          OVERALL BASIS SET ON ATOM IS LAPW
:E1_0011: E( 1)=    0.3000
             APW+lo
:E1_0011: E( 1)=   -4.6355   E(BOTTOM)=   -4.660   E(TOP)=   -4.611  1  2   163
             LOCAL ORBITAL
:E2_0011: E( 2)=    0.2930   E(BOTTOM)=    0.080   E(TOP)=    0.506  0  1   115
             APW+lo
:E0_0011: E( 0)=    0.3000
             APW+lo

          ATOMIC SPHERE DEPENDENT PARAMETERS FOR ATOM  Cu12      
:e__0012: OVERALL ENERGY PARAMETER IS    0.3000
          OVERALL BASIS SET ON ATOM IS LAPW
:E1_0012: E( 1)=    0.3000
             APW+lo
:E1_0012: E( 1)=   -4.6355   E(BOTTOM)=   -4.660   E(TOP)=   -4.611  1  2   163
             LOCAL ORBITAL
:E2_0012: E( 2)=    0.2930   E(BOTTOM)=    0.080   E(TOP)=    0.506  0  1   115
             APW+lo
:E0_0012: E( 0)=    0.3000
             APW+lo

          ATOMIC SPHERE DEPENDENT PARAMETERS FOR ATOM  Cu13      
:e__0013: OVERALL ENERGY PARAMETER IS    0.3000
          OVERALL BASIS SET ON ATOM IS LAPW
:E1_0013: E( 1)=    0.3000
             APW+lo
:E1_0013: E( 1)=   -4.6355   E(BOTTOM)=   -4.660   E(TOP)=   -4.611  1  2   162
             LOCAL ORBITAL
:E2_0013: E( 2)=    0.2930   E(BOTTOM)=    0.080   E(TOP)=    0.506  0  1   114
             APW+lo
:E0_0013: E( 0)=    0.3000
             APW+lo

          ATOMIC SPHERE DEPENDENT PARAMETERS FOR ATOM  Cu14      
:e__0014: OVERALL ENERGY PARAMETER IS    0.3000
          OVERALL BASIS SET ON ATOM IS LAPW
:E1_0014: E( 1)=    0.3000
             APW+lo
:E1_0014: E( 1)=   -4.6355   E(BOTTOM)=   -4.660   E(TOP)=   -4.611  1  2   162
             LOCAL ORBITAL
:E2_0014: E( 2)=    0.2930   E(BOTTOM)=    0.080   E(TOP)=    0.506  0  1   114
             APW+lo
:E0_0014: E( 0)=    0.3000
             APW+lo

          ATOMIC SPHERE DEPENDENT PARAMETERS FOR ATOM  Cu15      
:e__0015: OVERALL ENERGY PARAMETER IS    0.3000
          OVERALL BASIS SET ON ATOM IS LAPW
:E1_0015: E( 1)=    0.3000
             APW+lo
:E1_0015: E( 1)=   -4.6355   E(BOTTOM)=   -4.660   E(TOP)=   -4.611  1  2   162
             LOCAL ORBITAL
:E2_0015: E( 2)=    0.2930   E(BOTTOM)=    0.080   E(TOP)=    0.506  0  1   114
             APW+lo
:E0_0015: E( 0)=    0.3000
             APW+lo

          ATOMIC SPHERE DEPENDENT PARAMETERS FOR ATOM  Cu16      
:e__0016: OVERALL ENERGY PARAMETER IS    0.3000
          OVERALL BASIS SET ON ATOM IS LAPW
:E1_0016: E( 1)=    0.3000
             APW+lo
:E1_0016: E( 1)=   -4.6355   E(BOTTOM)=   -4.660   E(TOP)=   -4.611  1  2   162
             LOCAL ORBITAL
:E2_0016: E( 2)=    0.2930   E(BOTTOM)=    0.080   E(TOP)=    0.506  0  1   114
             APW+lo
:E0_0016: E( 0)=    0.3000
             APW+lo

          ATOMIC SPHERE DEPENDENT PARAMETERS FOR ATOM  Cu17      
:e__0017: OVERALL ENERGY PARAMETER IS    0.3000
          OVERALL BASIS SET ON ATOM IS LAPW
:E1_0017: E( 1)=    0.3000
             APW+lo
:E1_0017: E( 1)=   -4.6357   E(BOTTOM)=   -4.660   E(TOP)=   -4.611  1  2   173
             LOCAL ORBITAL
:E2_0017: E( 2)=    0.2928   E(BOTTOM)=    0.080   E(TOP)=    0.506  0  1   117
             APW+lo
:E0_0017: E( 0)=    0.3000
             APW+lo

          ATOMIC SPHERE DEPENDENT PARAMETERS FOR ATOM  Cu18      
:e__0018: OVERALL ENERGY PARAMETER IS    0.3000
          OVERALL BASIS SET ON ATOM IS LAPW
:E1_0018: E( 1)=    0.3000
             APW+lo
:E1_0018: E( 1)=   -4.6357   E(BOTTOM)=   -4.660   E(TOP)=   -4.611  1  2   173
             LOCAL ORBITAL
:E2_0018: E( 2)=    0.2928   E(BOTTOM)=    0.080   E(TOP)=    0.506  0  1   117
             APW+lo
:E0_0018: E( 0)=    0.3000
             APW+lo

          ATOMIC SPHERE DEPENDENT PARAMETERS FOR ATOM  Cu19      
:e__0019: OVERALL ENERGY PARAMETER IS    0.3000
          OVERALL BASIS SET ON ATOM IS LAPW
:E1_0019: E( 1)=    0.3000
             APW+lo
:E1_0019: E( 1)=   -4.6355   E(BOTTOM)=   -4.660   E(TOP)=   -4.611  1  2   164
             LOCAL ORBITAL
:E2_0019: E( 2)=    0.2930   E(BOTTOM)=    0.080   E(TOP)=    0.506  0  1   113
             APW+lo
:E0_0019: E( 0)=    0.3000
             APW+lo

          ATOMIC SPHERE DEPENDENT PARAMETERS FOR ATOM  Cu20      
:e__0020: OVERALL ENERGY PARAMETER IS    0.3000
          OVERALL BASIS SET ON ATOM IS LAPW
:E1_0020: E( 1)=    0.3000
             APW+lo
:E1_0020: E( 1)=   -4.6355   E(BOTTOM)=   -4.660   E(TOP)=   -4.611  1  2   164
             LOCAL ORBITAL
:E2_0020: E( 2)=    0.2930   E(BOTTOM)=    0.080   E(TOP)=    0.506  0  1   113
             APW+lo
:E0_0020: E( 0)=    0.3000
             APW+lo

          ATOMIC SPHERE DEPENDENT PARAMETERS FOR ATOM  Cu21      
:e__0021: OVERALL ENERGY PARAMETER IS    0.3000
          OVERALL BASIS SET ON ATOM IS LAPW
:E1_0021: E( 1)=    0.3000
             APW+lo
:E1_0021: E( 1)=   -4.6354   E(BOTTOM)=   -4.660   E(TOP)=   -4.611  1  2   163
             LOCAL ORBITAL
:E2_0021: E( 2)=    0.2932   E(BOTTOM)=    0.080   E(TOP)=    0.506  0  1   117
             APW+lo
:E0_0021: E( 0)=    0.3000
             APW+lo

          ATOMIC SPHERE DEPENDENT PARAMETERS FOR ATOM  Cu22      
:e__0022: OVERALL ENERGY PARAMETER IS    0.3000
          OVERALL BASIS SET ON ATOM IS LAPW
:E1_0022: E( 1)=    0.3000
             APW+lo
:E1_0022: E( 1)=   -4.6354   E(BOTTOM)=   -4.660   E(TOP)=   -4.611  1  2   163
             LOCAL ORBITAL
:E2_0022: E( 2)=    0.2932   E(BOTTOM)=    0.080   E(TOP)=    0.506  0  1   117
             APW+lo
:E0_0022: E( 0)=    0.3000
             APW+lo

          ATOMIC SPHERE DEPENDENT PARAMETERS FOR ATOM  Cu23      
:e__0023: OVERALL ENERGY PARAMETER IS    0.3000
          OVERALL BASIS SET ON ATOM IS LAPW
:E1_0023: E( 1)=    0.3000
             APW+lo
:E1_0023: E( 1)=   -4.6355   E(BOTTOM)=   -4.660   E(TOP)=   -4.611  1  2   167
             LOCAL ORBITAL
:E2_0023: E( 2)=    0.2930   E(BOTTOM)=    0.080   E(TOP)=    0.506  0  1   114
             APW+lo
:E0_0023: E( 0)=    0.3000
             APW+lo

          ATOMIC SPHERE DEPENDENT PARAMETERS FOR ATOM  Cu24      
:e__0024: OVERALL ENERGY PARAMETER IS    0.3000
          OVERALL BASIS SET ON ATOM IS LAPW
:E1_0024: E( 1)=    0.3000
             APW+lo
:E1_0024: E( 1)=   -4.6355   E(BOTTOM)=   -4.660   E(TOP)=   -4.611  1  2   167
             LOCAL ORBITAL
:E2_0024: E( 2)=    0.2930   E(BOTTOM)=    0.080   E(TOP)=    0.506  0  1   114
             APW+lo
:E0_0024: E( 0)=    0.3000
             APW+lo

          ATOMIC SPHERE DEPENDENT PARAMETERS FOR ATOM  Cu25      
:e__0025: OVERALL ENERGY PARAMETER IS    0.3000
          OVERALL BASIS SET ON ATOM IS LAPW
:E1_0025: E( 1)=    0.3000
             APW+lo
:E1_0025: E( 1)=   -4.6357   E(BOTTOM)=   -4.660   E(TOP)=   -4.611  1  2   172
             LOCAL ORBITAL
:E2_0025: E( 2)=    0.2928   E(BOTTOM)=    0.080   E(TOP)=    0.506  0  1   116
             APW+lo
:E0_0025: E( 0)=    0.3000
             APW+lo

          ATOMIC SPHERE DEPENDENT PARAMETERS FOR ATOM  Cu26      
:e__0026: OVERALL ENERGY PARAMETER IS    0.3000
          OVERALL BASIS SET ON ATOM IS LAPW
:E1_0026: E( 1)=    0.3000
             APW+lo
:E1_0026: E( 1)=   -4.6355   E(BOTTOM)=   -4.660   E(TOP)=   -4.611  1  2   165
             LOCAL ORBITAL
:E2_0026: E( 2)=    0.2930   E(BOTTOM)=    0.080   E(TOP)=    0.506  0  1   112
             APW+lo
:E0_0026: E( 0)=    0.3000
             APW+lo

          ATOMIC SPHERE DEPENDENT PARAMETERS FOR ATOM  Cu27      
:e__0027: OVERALL ENERGY PARAMETER IS    0.3000
          OVERALL BASIS SET ON ATOM IS LAPW
:E1_0027: E( 1)=    0.3000
             APW+lo
:E1_0027: E( 1)=   -4.6357   E(BOTTOM)=   -4.660   E(TOP)=   -4.611  1  2   172
             LOCAL ORBITAL
:E2_0027: E( 2)=    0.2928   E(BOTTOM)=    0.080   E(TOP)=    0.506  0  1   116
             APW+lo
:E0_0027: E( 0)=    0.3000
             APW+lo

          ATOMIC SPHERE DEPENDENT PARAMETERS FOR ATOM  Cu28      
:e__0028: OVERALL ENERGY PARAMETER IS    0.3000
          OVERALL BASIS SET ON ATOM IS LAPW
:E1_0028: E( 1)=    0.3000
             APW+lo
:E1_0028: E( 1)=   -4.6355   E(BOTTOM)=   -4.660   E(TOP)=   -4.611  1  2   165
             LOCAL ORBITAL
:E2_0028: E( 2)=    0.2930   E(BOTTOM)=    0.080   E(TOP)=    0.506  0  1   112
             APW+lo
:E0_0028: E( 0)=    0.3000
             APW+lo

          ATOMIC SPHERE DEPENDENT PARAMETERS FOR ATOM  Cu29      
:e__0029: OVERALL ENERGY PARAMETER IS    0.3000
          OVERALL BASIS SET ON ATOM IS LAPW
:E1_0029: E( 1)=    0.3000
             APW+lo
:E1_0029: E( 1)=   -4.6354   E(BOTTOM)=   -4.660   E(TOP)=   -4.611  1  2   170
             LOCAL ORBITAL
:E2_0029: E( 2)=    0.2932   E(BOTTOM)=    0.080   E(TOP)=    0.506  0  1   121
             APW+lo
:E0_0029: E( 0)=    0.3000
             APW+lo

          ATOMIC SPHERE DEPENDENT PARAMETERS FOR ATOM  Cu30      
:e__0030: OVERALL ENERGY PARAMETER IS    0.3000
          OVERALL BASIS SET ON ATOM IS LAPW
:E1_0030: E( 1)=    0.3000
             APW+lo
:E1_0030: E( 1)=   -4.6355   E(BOTTOM)=   -4.660   E(TOP)=   -4.611  1  2   161
             LOCAL ORBITAL
:E2_0030: E( 2)=    0.2930   E(BOTTOM)=    0.080   E(TOP)=    0.506  0  1   114
             APW+lo
:E0_0030: E( 0)=    0.3000
             APW+lo

          ATOMIC SPHERE DEPENDENT PARAMETERS FOR ATOM  Cu31      
:e__0031: OVERALL ENERGY PARAMETER IS    0.3000
          OVERALL BASIS SET ON ATOM IS LAPW
:E1_0031: E( 1)=    0.3000
             APW+lo
:E1_0031: E( 1)=   -4.6354   E(BOTTOM)=   -4.660   E(TOP)=   -4.611  1  2   170
             LOCAL ORBITAL
:E2_0031: E( 2)=    0.2932   E(BOTTOM)=    0.080   E(TOP)=    0.506  0  1   121
             APW+lo
:E0_0031: E( 0)=    0.3000
             APW+lo

          ATOMIC SPHERE DEPENDENT PARAMETERS FOR ATOM  Cu32      
:e__0032: OVERALL ENERGY PARAMETER IS    0.3000
          OVERALL BASIS SET ON ATOM IS LAPW
:E1_0032: E( 1)=    0.3000
             APW+lo
:E1_0032: E( 1)=   -4.6355   E(BOTTOM)=   -4.660   E(TOP)=   -4.611  1  2   161
             LOCAL ORBITAL
:E2_0032: E( 2)=    0.2930   E(BOTTOM)=    0.080   E(TOP)=    0.506  0  1   114
             APW+lo
:E0_0032: E( 0)=    0.3000
             APW+lo

       K=   0.16667   0.16667   0.16667            1
:RKM  : MATRIX SIZE  1216LOs: 384  RKM= 5.95  WEIGHT= 2.00  PGR:    
       EIGENVALUES ARE:
:EIG00001:      -4.6340941   -4.6340916   -4.6340912   -4.6339543   -4.6335978
:EIG00006:      -4.6335974   -4.6335972   -4.6326351   -4.6326068   -4.6325771
:EIG00011:      -4.6324132   -4.6323911   -4.6323801   -4.6323794   -4.6323690
:EIG00016:      -4.6323486   -4.6321663   -4.6321623   -4.6321413   -4.6321408
:EIG00021:      -4.6321179   -4.6321150   -4.6315814   -4.6315747   -4.6315660
:EIG00026:      -4.6314797   -4.6314687   -4.6314560   -4.6311017   -4.6310999
:EIG00031:      -4.6310844   -4.6310815   -4.6310655   -4.6310652   -4.6304679
:EIG00036:      -4.6304649   -4.6304580   -4.6296916   -4.6296637   -4.6296512
:EIG00041:      -4.6296305   -4.6296294   -4.6296250   -4.6296232   -4.6296058
:EIG00046:      -4.6295812   -4.6295622   -4.6295619   -4.6295527   -4.6295443

:EIG00051:      -4.6295397   -4.6295374   -4.6295138   -4.6295136   -4.6295047
:EIG00056:      -4.6291913   -4.6291884   -4.6291830   -4.6287956   -4.6287809
:EIG00061:      -4.6287678   -4.6285789   -4.6285671   -4.6285507   -4.6285223
:EIG00066:      -4.6285111   -4.6285038   -4.6281220   -4.6281062   -4.6281020
:EIG00071:      -4.6279175   -4.6278822   -4.6278774   -4.6278723   -4.6278645
:EIG00076:      -4.6278599   -4.6278589   -4.6278568   -4.6278378   -4.6278218
:EIG00081:      -4.6278178   -4.6278051   -4.6276625   -4.6276570   -4.6276026
:EIG00086:      -4.6275932   -4.6275812   -4.6275741   -4.6275716   -4.6275550
:EIG00091:      -4.6275195   -4.6275155   -4.6274826   -4.6270532   -4.6269388
:EIG00096:      -4.6269382   -0.1134918    0.0243624    0.0245322    0.0247006

:EIG00101:       0.1288387    0.1289847    0.1291226    0.1339185    0.1340542
:EIG00106:       0.1341952    0.1539734    0.1720922    0.1720972    0.1721041
:EIG00111:       0.1844845    0.1844922    0.1844968    0.2000893    0.2001444
:EIG00116:       0.2002453    0.2002461    0.2003468    0.2004032    0.2174704
:EIG00121:       0.2174803    0.2174879    0.2272356    0.2273357    0.2274338
:EIG00126:       0.2329204    0.2330749    0.2330963    0.2330975    0.2331193
:EIG00131:       0.2332695    0.2479281    0.2479868    0.2480412    0.2514523
:EIG00136:       0.2514650    0.2515299    0.2515311    0.2515954    0.2516069
:EIG00141:       0.2717007    0.2717551    0.2718037    0.2735021    0.2735767
:EIG00146:       0.2736296    0.2738892    0.2739504    0.2739961    0.2740017

:EIG00151:       0.2740429    0.2741237    0.2797983    0.2798706    0.2799477
:EIG00156:       0.2877952    0.2878504    0.2879075    0.2892818    0.2893454
:EIG00161:       0.2893811    0.2893833    0.2894187    0.2894846    0.2917863
:EIG00166:       0.2917906    0.2918630    0.2918658    0.2919385    0.2919433
:EIG00171:       0.3018930    0.3019025    0.3019125    0.3031496    0.3059816
:EIG00176:       0.3060277    0.3060760    0.3083407    0.3083443    0.3097253
:EIG00181:       0.3097269    0.3108629    0.3108655    0.3108667    0.3278970
:EIG00186:       0.3279766    0.3280458    0.3285684    0.3285856    0.3286158
:EIG00191:       0.3318733    0.3318968    0.3319153    0.3399817    0.3400293
:EIG00196:       0.3400738    0.3430366    0.3430440    0.3431101    0.3431113

:EIG00201:       0.3431758    0.3431878    0.3438769    0.3439507    0.3440239
:EIG00206:       0.3543599    0.3544289    0.3545000    0.3579817    0.3580588
:EIG00211:       0.3581334    0.3601204    0.3601964    0.3602756    0.3632559
:EIG00216:       0.3632952    0.3633407    0.3635000    0.3635480    0.3635681
:EIG00221:       0.3635695    0.3635825    0.3636207    0.3637291    0.3637398
:EIG00226:       0.3768382    0.3768930    0.3769270    0.3769271    0.3769613
:EIG00231:       0.3770146    0.3811626    0.3812127    0.3812631    0.3830478
:EIG00236:       0.3830770    0.3831071    0.3896935    0.3897391    0.3897853
:EIG00241:       0.3921806    0.3921860    0.3921907    0.3937801    0.3937988
:EIG00246:       0.3938174    0.3980900    0.3980915    0.4001060    0.4001092

:EIG00251:       0.4001138    0.4024512    0.4063883    0.4064001    0.4064100
:EIG00256:       0.4064103    0.4064194    0.4064330    0.4071717    0.4071754
:EIG00261:       0.4071809    0.4138363    0.4138381    0.4138410    0.4373525
:EIG00266:       0.4373949    0.4374370    0.5137367    0.5137627    0.5138376
:EIG00271:       0.5138377    0.5139114    0.5139372    0.5238960    0.5239071
:EIG00276:       0.5239157    0.6253752    0.6254713    0.6255681    0.6522304
:EIG00281:       0.6522562    0.6522847    0.8366843    0.8367082    0.8367359
:EIG00286:       0.8652844    0.8653652    0.8654762    0.8654772    0.8655886
:EIG00291:       0.8656701    0.9387261    1.0218624    1.0218714    1.0220235
:EIG00296:       1.0220240    1.0221748    1.0221832    1.0399855    1.0400830

:EIG00301:       1.0401800    1.1279089    1.1279418    1.1279718    1.1847687
:EIG00306:       1.1848132    1.1849102    1.1849110    1.1850070    1.1850510
:EIG00311:       1.2196600    1.2197338    1.2197910    1.2197916    1.2198497
:EIG00316:       1.2199214    1.3256247    1.3257166    1.3257785    1.3257796
:EIG00321:       1.3258430    1.3259308    1.3307770    1.3308469    1.3309187
:EIG00326:       1.3412830    1.3413532    1.3414240    1.3986731    1.3986874
:EIG00331:       1.3987033    1.4684824    1.4685633    1.4686097    1.4686104
:EIG00336:       1.4686577    1.4687367    1.5392330    1.5392354    1.5392384
:EIG00341:       1.5796340    1.5797305    1.5798233    1.6078572    1.6079529
:EIG00346:       1.6080564    1.7386856    1.7386960    1.7387103    1.7466448

:EIG00351:       1.7466887    1.7467351    1.7674732    1.7674861    1.7675007
:EIG00356:       1.8856517    1.8856768    1.8857466    1.8857471    1.8858165
:EIG00361:       1.8858405    1.9298248    1.9298789    1.9299359    1.9372434
:EIG00366:       1.9372979    1.9373545    1.9819353    1.9819376    1.9819409
:EIG00371:       1.9860699    1.9860740    1.9860800
       ********************************************************

:KPT   :      NUMBER OF K-POINTS:    14
:GAP (global)   :    0.0    Ry =     0.0   eV (metal)
         Bandranges (emin - emax) and occupancy:
:BAN00266: 266    0.437395    0.607922  1.96438487
:BAN00267: 267    0.437437    0.607922  1.96437923
:BAN00268: 268    0.442894    0.608242  1.92936372
:BAN00269: 269    0.487527    0.608242  1.54959449
:BAN00270: 270    0.487554    0.608243  1.52665940
:BAN00271: 271    0.513838    0.608257  1.24024776
:BAN00272: 272    0.513911    0.608261  1.23796532
:BAN00273: 273    0.513937    0.608263  1.23800154
:BAN00274: 274    0.517189    0.608264  1.16662970
:BAN00275: 275    0.523907    0.616425  0.10914824
:BAN00276: 276    0.523916    0.616486  0.10906292
:BAN00277: 277    0.608285    0.680144  0.00000000
:BAN00278: 278    0.608286    0.680175  0.00000000
:BAN00279: 279    0.608291    0.680280  0.00000000
:BAN00280: 280    0.608293    0.680280  0.00000000
:BAN00281: 281    0.608294    0.738906  0.00000000
        Energy to separate low and high energystates:   -0.16349


:NOE  : NUMBER OF ELECTRONS          = 544.000

:FER  : F E R M I - ENERGY(TETRAH.M.)=   0.5299720998
:GMA  : POTENTIAL AND CHARGE CUT-OFF  12.00 Ry**.5




:POS001: ATOM   -1 X,Y,Z = 0.00138 0.00000 0.00000  MULT= 1  ZZ= 29.000  Cu1       

       LMMAX 49


:CHA001: TOTAL VALENCE CHARGE INSIDE SPHERE   1 =  15.9050    (RMT=  2.2200 )
:PCS001: PARTIAL CHARGES SPHERE =  1 S,P,D,F,PX,PY,PZ,D-Z2,D-X2Y2,D-XY,D-XZ,D-YZ 
:QTL001: 0.4069 6.3110 9.1690 0.0118 2.1046 2.1033 2.1032 1.8494 1.8504 1.8241 1.8241 1.8211
        Q-s-low E-s-low   Q-p-low E-p-low   Q-d-low E-d-low   Q-f-low E-f-low
:EPL001:  0.0000 10.0000    5.9931 -4.6299    0.0001 -4.6301    0.0000 10.0000
        Q-s-hi  E-s-hi    Q-p-hi  E-p-hi    Q-d-hi  E-d-hi    Q-f-hi  E-f-hi 
:EPH001:  0.4069  0.1599    0.3179  0.2938    9.1689  0.3243    0.0118  0.3215

                      QXX         QXY         QYY         QZZ       UP TO R
:VZZ001:            -0.43480    -0.03027     0.21489     0.21991       2.220




:POS002: ATOM   -2 X,Y,Z = 0.00000 0.00000 0.50000  MULT= 1  ZZ= 29.000  Cu2       

       LMMAX 49


:CHA002: TOTAL VALENCE CHARGE INSIDE SPHERE   2 =  15.9007    (RMT=  2.2200 )
:PCS002: PARTIAL CHARGES SPHERE =  2 S,P,D,F,PX,PY,PZ,D-Z2,D-X2Y2,D-XY,D-XZ,D-YZ 
:QTL002: 0.4081 6.3056 9.1689 0.0118 2.1031 2.1011 2.1015 1.8510 1.8505 1.8225 1.8214 1.8236
        Q-s-low E-s-low   Q-p-low E-p-low   Q-d-low E-d-low   Q-f-low E-f-low
:EPL002:  0.0000 10.0000    5.9931 -4.6299    0.0001 -4.6301    0.0000 10.0000
        Q-s-hi  E-s-hi    Q-p-hi  E-p-hi    Q-d-hi  E-d-hi    Q-f-hi  E-f-hi 
:EPH002:  0.4080  0.1611    0.3125  0.2888    9.1689  0.3243    0.0118  0.3213

                      QXX         QXY         QYY         QZZ       UP TO R
:VZZ002:            -0.15517    -0.03310     0.10299     0.05218       2.220




:POS003: ATOM   -3 X,Y,Z = 0.00000 0.50000 0.00000  MULT= 1  ZZ= 29.000  Cu3       

       LMMAX 49


:CHA003: TOTAL VALENCE CHARGE INSIDE SPHERE   3 =  15.9007    (RMT=  2.2200 )
:PCS003: PARTIAL CHARGES SPHERE =  3 S,P,D,F,PX,PY,PZ,D-Z2,D-X2Y2,D-XY,D-XZ,D-YZ 
:QTL003: 0.4081 6.3057 9.1689 0.0118 2.1031 2.1015 2.1011 1.8503 1.8511 1.8214 1.8225 1.8236
        Q-s-low E-s-low   Q-p-low E-p-low   Q-d-low E-d-low   Q-f-low E-f-low
:EPL003:  0.0000 10.0000    5.9931 -4.6299    0.0001 -4.6301    0.0000 10.0000
        Q-s-hi  E-s-hi    Q-p-hi  E-p-hi    Q-d-hi  E-d-hi    Q-f-hi  E-f-hi 
:EPH003:  0.4080  0.1611    0.3125  0.2888    9.1689  0.3243    0.0118  0.3213

                      QXX         QXY         QYY         QZZ       UP TO R
:VZZ003:            -0.15440    -0.03307     0.04946     0.10495       2.220




:POS004: ATOM   -4 X,Y,Z = 0.00000 0.50000 0.50000  MULT= 1  ZZ= 29.000  Cu4       

       LMMAX 49


:CHA004: TOTAL VALENCE CHARGE INSIDE SPHERE   4 =  15.8960    (RMT=  2.2200 )
:PCS004: PARTIAL CHARGES SPHERE =  4 S,P,D,F,PX,PY,PZ,D-Z2,D-X2Y2,D-XY,D-XZ,D-YZ 
:QTL004: 0.4062 6.3070 9.1648 0.0118 2.1020 2.1025 2.1025 1.8490 1.8493 1.8221 1.8221 1.8223
        Q-s-low E-s-low   Q-p-low E-p-low   Q-d-low E-d-low   Q-f-low E-f-low
:EPL004:  0.0000 10.0000    5.9931 -4.6299    0.0001 -4.6301    0.0000 10.0000
        Q-s-hi  E-s-hi    Q-p-hi  E-p-hi    Q-d-hi  E-d-hi    Q-f-hi  E-f-hi 
:EPH004:  0.4061  0.1591    0.3138  0.2899    9.1648  0.3242    0.0118  0.3214

                      QXX         QXY         QYY         QZZ       UP TO R
:VZZ004:             0.04368    -0.03322    -0.02406    -0.01962       2.220




:POS005: ATOM   -5 X,Y,Z = 0.50000 0.00000 0.00000  MULT= 1  ZZ= 29.000  Cu5       

       LMMAX 49


:CHA005: TOTAL VALENCE CHARGE INSIDE SPHERE   5 =  15.8956    (RMT=  2.2200 )
:PCS005: PARTIAL CHARGES SPHERE =  5 S,P,D,F,PX,PY,PZ,D-Z2,D-X2Y2,D-XY,D-XZ,D-YZ 
:QTL005: 0.4066 6.3070 9.1640 0.0118 2.1033 2.1019 2.1019 1.8491 1.8508 1.8215 1.8215 1.8210
        Q-s-low E-s-low   Q-p-low E-p-low   Q-d-low E-d-low   Q-f-low E-f-low
:EPL005:  0.0000 10.0000    5.9931 -4.6299    0.0001 -4.6301    0.0000 10.0000
        Q-s-hi  E-s-hi    Q-p-hi  E-p-hi    Q-d-hi  E-d-hi    Q-f-hi  E-f-hi 
:EPH005:  0.4065  0.1595    0.3139  0.2901    9.1639  0.3242    0.0118  0.3214

                      QXX         QXY         QYY         QZZ       UP TO R
:VZZ005:            -0.39905    -0.03277     0.19679     0.20226       2.220




:POS006: ATOM   -6 X,Y,Z = 0.50000 0.00000 0.50000  MULT= 1  ZZ= 29.000  Cu6       

       LMMAX 49


:CHA006: TOTAL VALENCE CHARGE INSIDE SPHERE   6 =  15.8990    (RMT=  2.2200 )
:PCS006: PARTIAL CHARGES SPHERE =  6 S,P,D,F,PX,PY,PZ,D-Z2,D-X2Y2,D-XY,D-XZ,D-YZ 
:QTL006: 0.4101 6.3044 9.1666 0.0118 2.1029 2.1006 2.1010 1.8498 1.8510 1.8209 1.8211 1.8237
        Q-s-low E-s-low   Q-p-low E-p-low   Q-d-low E-d-low   Q-f-low E-f-low
:EPL006:  0.0000 10.0000    5.9931 -4.6299    0.0001 -4.6301    0.0000 10.0000
        Q-s-hi  E-s-hi    Q-p-hi  E-p-hi    Q-d-hi  E-d-hi    Q-f-hi  E-f-hi 
:EPH006:  0.4100  0.1632    0.3113  0.2877    9.1665  0.3243    0.0117  0.3208

                      QXX         QXY         QYY         QZZ       UP TO R
:VZZ006:            -0.18218    -0.03457     0.11046     0.07172       2.220




:POS007: ATOM   -7 X,Y,Z = 0.50000 0.50000 0.00000  MULT= 1  ZZ= 29.000  Cu7       

       LMMAX 49


:CHA007: TOTAL VALENCE CHARGE INSIDE SPHERE   7 =  15.8991    (RMT=  2.2200 )
:PCS007: PARTIAL CHARGES SPHERE =  7 S,P,D,F,PX,PY,PZ,D-Z2,D-X2Y2,D-XY,D-XZ,D-YZ 
:QTL007: 0.4101 6.3044 9.1666 0.0118 2.1029 2.1010 2.1006 1.8504 1.8505 1.8211 1.8209 1.8237
        Q-s-low E-s-low   Q-p-low E-p-low   Q-d-low E-d-low   Q-f-low E-f-low
:EPL007:  0.0000 10.0000    5.9931 -4.6299    0.0001 -4.6301    0.0000 10.0000
        Q-s-hi  E-s-hi    Q-p-hi  E-p-hi    Q-d-hi  E-d-hi    Q-f-hi  E-f-hi 
:EPH007:  0.4100  0.1632    0.3113  0.2877    9.1665  0.3243    0.0117  0.3208

                      QXX         QXY         QYY         QZZ       UP TO R
:VZZ007:            -0.18179    -0.03272     0.06884     0.11295       2.220




:POS008: ATOM   -8 X,Y,Z = 0.50000 0.50000 0.50000  MULT= 1  ZZ= 29.000  Cu8       

       LMMAX 49


:CHA008: TOTAL VALENCE CHARGE INSIDE SPHERE   8 =  15.8952    (RMT=  2.2200 )
:PCS008: PARTIAL CHARGES SPHERE =  8 S,P,D,F,PX,PY,PZ,D-Z2,D-X2Y2,D-XY,D-XZ,D-YZ 
:QTL008: 0.4078 6.3061 9.1633 0.0118 2.1022 2.1020 2.1020 1.8491 1.8494 1.8218 1.8218 1.8212
        Q-s-low E-s-low   Q-p-low E-p-low   Q-d-low E-d-low   Q-f-low E-f-low
:EPL008:  0.0000 10.0000    5.9931 -4.6299    0.0001 -4.6301    0.0000 10.0000
        Q-s-hi  E-s-hi    Q-p-hi  E-p-hi    Q-d-hi  E-d-hi    Q-f-hi  E-f-hi 
:EPH008:  0.4078  0.1607    0.3130  0.2892    9.1632  0.3242    0.0118  0.3211

                      QXX         QXY         QYY         QZZ       UP TO R
:VZZ008:            -0.08177    -0.03158     0.03860     0.04317       2.220




:POS009: ATOM   -9 X,Y,Z = 0.00000 0.25000 0.25000  MULT= 1  ZZ= 29.000  Cu9       

       LMMAX 49


:CHA009: TOTAL VALENCE CHARGE INSIDE SPHERE   9 =  15.9014    (RMT=  2.2200 )
:PCS009: PARTIAL CHARGES SPHERE =  9 S,P,D,F,PX,PY,PZ,D-Z2,D-X2Y2,D-XY,D-XZ,D-YZ 
:QTL009: 0.4093 6.3069 9.1672 0.0118 2.1034 2.1017 2.1017 1.8502 1.8501 1.8221 1.8221 1.8227
        Q-s-low E-s-low   Q-p-low E-p-low   Q-d-low E-d-low   Q-f-low E-f-low
:EPL009:  0.0000 10.0000    5.9931 -4.6299    0.0001 -4.6301    0.0000 10.0000
        Q-s-hi  E-s-hi    Q-p-hi  E-p-hi    Q-d-hi  E-d-hi    Q-f-hi  E-f-hi 
:EPH009:  0.4092  0.1623    0.3137  0.2899    9.1671  0.3243    0.0118  0.3215

                      QXX         QXY         QYY         QZZ       UP TO R
:VZZ009:            -0.17568     0.16181     0.08659     0.08909       2.220




:POS010: ATOM  -10 X,Y,Z = 0.00000 0.25000 0.75000  MULT= 1  ZZ= 29.000  Cu10      

       LMMAX 49


:CHA010: TOTAL VALENCE CHARGE INSIDE SPHERE  10 =  15.9014    (RMT=  2.2200 )
:PCS010: PARTIAL CHARGES SPHERE = 10 S,P,D,F,PX,PY,PZ,D-Z2,D-X2Y2,D-XY,D-XZ,D-YZ 
:QTL010: 0.4093 6.3069 9.1672 0.0118 2.1034 2.1017 2.1017 1.8501 1.8501 1.8221 1.8221 1.8227
        Q-s-low E-s-low   Q-p-low E-p-low   Q-d-low E-d-low   Q-f-low E-f-low
:EPL010:  0.0000 10.0000    5.9931 -4.6299    0.0001 -4.6301    0.0000 10.0000
        Q-s-hi  E-s-hi    Q-p-hi  E-p-hi    Q-d-hi  E-d-hi    Q-f-hi  E-f-hi 
:EPH010:  0.4093  0.1623    0.3137  0.2899    9.1671  0.3243    0.0118  0.3215

                      QXX         QXY         QYY         QZZ       UP TO R
:VZZ010:            -0.16814     0.15952     0.07729     0.09085       2.220




:POS011: ATOM  -11 X,Y,Z = 0.00000 0.75000 0.25000  MULT= 1  ZZ= 29.000  Cu11      

       LMMAX 49


:CHA011: TOTAL VALENCE CHARGE INSIDE SPHERE  11 =  15.9014    (RMT=  2.2200 )
:PCS011: PARTIAL CHARGES SPHERE = 11 S,P,D,F,PX,PY,PZ,D-Z2,D-X2Y2,D-XY,D-XZ,D-YZ 
:QTL011: 0.4093 6.3069 9.1672 0.0118 2.1034 2.1017 2.1017 1.8502 1.8500 1.8222 1.8221 1.8227
        Q-s-low E-s-low   Q-p-low E-p-low   Q-d-low E-d-low   Q-f-low E-f-low
:EPL011:  0.0000 10.0000    5.9931 -4.6299    0.0001 -4.6301    0.0000 10.0000
        Q-s-hi  E-s-hi    Q-p-hi  E-p-hi    Q-d-hi  E-d-hi    Q-f-hi  E-f-hi 
:EPH011:  0.4093  0.1623    0.3137  0.2899    9.1671  0.3243    0.0118  0.3215

                      QXX         QXY         QYY         QZZ       UP TO R
:VZZ011:            -0.16817    -0.22230     0.08832     0.07985       2.220




:POS012: ATOM  -12 X,Y,Z = 0.00000 0.75000 0.75000  MULT= 1  ZZ= 29.000  Cu12      

       LMMAX 49


:CHA012: TOTAL VALENCE CHARGE INSIDE SPHERE  12 =  15.9014    (RMT=  2.2200 )
:PCS012: PARTIAL CHARGES SPHERE = 12 S,P,D,F,PX,PY,PZ,D-Z2,D-X2Y2,D-XY,D-XZ,D-YZ 
:QTL012: 0.4095 6.3069 9.1670 0.0118 2.1035 2.1017 2.1017 1.8501 1.8500 1.8221 1.8221 1.8227
        Q-s-low E-s-low   Q-p-low E-p-low   Q-d-low E-d-low   Q-f-low E-f-low
:EPL012:  0.0000 10.0000    5.9931 -4.6299    0.0001 -4.6301    0.0000 10.0000
        Q-s-hi  E-s-hi    Q-p-hi  E-p-hi    Q-d-hi  E-d-hi    Q-f-hi  E-f-hi 
:EPH012:  0.4094  0.1624    0.3138  0.2899    9.1669  0.3243    0.0118  0.3215

                      QXX         QXY         QYY         QZZ       UP TO R
:VZZ012:            -0.16868    -0.22902     0.08305     0.08563       2.220




:POS013: ATOM  -13 X,Y,Z = 0.50000 0.25000 0.25000  MULT= 1  ZZ= 29.000  Cu13      

       LMMAX 49


:CHA013: TOTAL VALENCE CHARGE INSIDE SPHERE  13 =  15.8997    (RMT=  2.2200 )
:PCS013: PARTIAL CHARGES SPHERE = 13 S,P,D,F,PX,PY,PZ,D-Z2,D-X2Y2,D-XY,D-XZ,D-YZ 
:QTL013: 0.4082 6.3049 9.1686 0.0118 2.1020 2.1014 2.1014 1.8496 1.8505 1.8230 1.8230 1.8224
        Q-s-low E-s-low   Q-p-low E-p-low   Q-d-low E-d-low   Q-f-low E-f-low
:EPL013:  0.0000 10.0000    5.9931 -4.6299    0.0001 -4.6301    0.0000 10.0000
        Q-s-hi  E-s-hi    Q-p-hi  E-p-hi    Q-d-hi  E-d-hi    Q-f-hi  E-f-hi 
:EPH013:  0.4082  0.1612    0.3118  0.2881    9.1685  0.3243    0.0118  0.3211

                      QXX         QXY         QYY         QZZ       UP TO R
:VZZ013:            -0.20820    -0.10859     0.10344     0.10476       2.220




:POS014: ATOM  -14 X,Y,Z = 0.50000 0.25000 0.75000  MULT= 1  ZZ= 29.000  Cu14      

       LMMAX 49


:CHA014: TOTAL VALENCE CHARGE INSIDE SPHERE  14 =  15.8997    (RMT=  2.2200 )
:PCS014: PARTIAL CHARGES SPHERE = 14 S,P,D,F,PX,PY,PZ,D-Z2,D-X2Y2,D-XY,D-XZ,D-YZ 
:QTL014: 0.4081 6.3049 9.1687 0.0118 2.1020 2.1014 2.1014 1.8497 1.8505 1.8230 1.8230 1.8224
        Q-s-low E-s-low   Q-p-low E-p-low   Q-d-low E-d-low   Q-f-low E-f-low
:EPL014:  0.0000 10.0000    5.9931 -4.6299    0.0001 -4.6301    0.0000 10.0000
        Q-s-hi  E-s-hi    Q-p-hi  E-p-hi    Q-d-hi  E-d-hi    Q-f-hi  E-f-hi 
:EPH014:  0.4081  0.1611    0.3118  0.2881    9.1686  0.3243    0.0118  0.3211

                      QXX         QXY         QYY         QZZ       UP TO R
:VZZ014:            -0.20877    -0.10261     0.11042     0.09834       2.220




:POS015: ATOM  -15 X,Y,Z = 0.50000 0.75000 0.25000  MULT= 1  ZZ= 29.000  Cu15      

       LMMAX 49


:CHA015: TOTAL VALENCE CHARGE INSIDE SPHERE  15 =  15.8997    (RMT=  2.2200 )
:PCS015: PARTIAL CHARGES SPHERE = 15 S,P,D,F,PX,PY,PZ,D-Z2,D-X2Y2,D-XY,D-XZ,D-YZ 
:QTL015: 0.4081 6.3049 9.1687 0.0118 2.1020 2.1014 2.1014 1.8496 1.8506 1.8230 1.8230 1.8224
        Q-s-low E-s-low   Q-p-low E-p-low   Q-d-low E-d-low   Q-f-low E-f-low
:EPL015:  0.0000 10.0000    5.9931 -4.6299    0.0001 -4.6301    0.0000 10.0000
        Q-s-hi  E-s-hi    Q-p-hi  E-p-hi    Q-d-hi  E-d-hi    Q-f-hi  E-f-hi 
:EPH015:  0.4081  0.1611    0.3118  0.2881    9.1686  0.3243    0.0118  0.3211

                      QXX         QXY         QYY         QZZ       UP TO R
:VZZ015:            -0.20873     0.03973     0.09705     0.11167       2.220




:POS016: ATOM  -16 X,Y,Z = 0.50000 0.75000 0.75000  MULT= 1  ZZ= 29.000  Cu16      

       LMMAX 49


:CHA016: TOTAL VALENCE CHARGE INSIDE SPHERE  16 =  15.8997    (RMT=  2.2200 )
:PCS016: PARTIAL CHARGES SPHERE = 16 S,P,D,F,PX,PY,PZ,D-Z2,D-X2Y2,D-XY,D-XZ,D-YZ 
:QTL016: 0.4080 6.3049 9.1687 0.0118 2.1020 2.1014 2.1014 1.8496 1.8506 1.8230 1.8230 1.8224
        Q-s-low E-s-low   Q-p-low E-p-low   Q-d-low E-d-low   Q-f-low E-f-low
:EPL016:  0.0000 10.0000    5.9931 -4.6299    0.0001 -4.6301    0.0000 10.0000
        Q-s-hi  E-s-hi    Q-p-hi  E-p-hi    Q-d-hi  E-d-hi    Q-f-hi  E-f-hi 
:EPH016:  0.4080  0.1610    0.3118  0.2881    9.1687  0.3243    0.0118  0.3211

                      QXX         QXY         QYY         QZZ       UP TO R
:VZZ016:            -0.21775     0.04148     0.10826     0.10948       2.220




:POS017: ATOM  -17 X,Y,Z = 0.25000 0.00000 0.25000  MULT= 1  ZZ= 29.000  Cu17      

       LMMAX 49


:CHA017: TOTAL VALENCE CHARGE INSIDE SPHERE  17 =  15.9037    (RMT=  2.2200 )
:PCS017: PARTIAL CHARGES SPHERE = 17 S,P,D,F,PX,PY,PZ,D-Z2,D-X2Y2,D-XY,D-XZ,D-YZ 
:QTL017: 0.4092 6.3103 9.1661 0.0118 2.1021 2.1038 2.1044 1.8520 1.8496 1.8216 1.8214 1.8216
        Q-s-low E-s-low   Q-p-low E-p-low   Q-d-low E-d-low   Q-f-low E-f-low
:EPL017:  0.0000 10.0000    5.9931 -4.6301    0.0001 -4.6301    0.0000 10.0000
        Q-s-hi  E-s-hi    Q-p-hi  E-p-hi    Q-d-hi  E-d-hi    Q-f-hi  E-f-hi 
:EPH017:  0.4092  0.1616    0.3172  0.2922    9.1661  0.3241    0.0118  0.3209

                      QXX         QXY         QYY         QZZ       UP TO R
:VZZ017:             0.32775    -0.04454    -0.02078    -0.30697       2.220




:POS018: ATOM  -18 X,Y,Z = 0.25000 0.00000 0.75000  MULT= 1  ZZ= 29.000  Cu18      

       LMMAX 49


[...]

:NEC01: NUCLEAR AND ELECTRONIC CHARGE    928.00000   927.98597
     
       CHARGES OF OLD CHARGE DENSITY
:OTO   : INTERSTITIAL CHARGE =    37.288227
:OTO001: CHARGE SPHERE  1    =    27.834097
:OTO002: CHARGE SPHERE  2    =    27.835074
:OTO003: CHARGE SPHERE  3    =    27.835109
:OTO004: CHARGE SPHERE  4    =    27.834696
:OTO005: CHARGE SPHERE  5    =    27.834872
:OTO006: CHARGE SPHERE  6    =    27.835168
:OTO007: CHARGE SPHERE  7    =    27.835013
:OTO008: CHARGE SPHERE  8    =    27.833988
:OTO009: CHARGE SPHERE  9    =    27.834706
:OTO010: CHARGE SPHERE 10    =    27.834688
:OTO011: CHARGE SPHERE 11    =    27.834701
:OTO012: CHARGE SPHERE 12    =    27.834667
:OTO013: CHARGE SPHERE 13    =    27.834627
:OTO014: CHARGE SPHERE 14    =    27.834670
:OTO015: CHARGE SPHERE 15    =    27.834634
:OTO016: CHARGE SPHERE 16    =    27.834662
:OTO017: CHARGE SPHERE 17    =    27.835507
:OTO018: CHARGE SPHERE 18    =    27.835422
:OTO019: CHARGE SPHERE 19    =    27.834923
:OTO020: CHARGE SPHERE 20    =    27.834910
:OTO021: CHARGE SPHERE 21    =    27.834081
:OTO022: CHARGE SPHERE 22    =    27.834066
:OTO023: CHARGE SPHERE 23    =    27.834493
:OTO024: CHARGE SPHERE 24    =    27.834495
:OTO025: CHARGE SPHERE 25    =    27.835480
:OTO026: CHARGE SPHERE 26    =    27.834934
:OTO027: CHARGE SPHERE 27    =    27.835628
:OTO028: CHARGE SPHERE 28    =    27.834906
:OTO029: CHARGE SPHERE 29    =    27.834071
:OTO030: CHARGE SPHERE 30    =    27.834769
:OTO031: CHARGE SPHERE 31    =    27.834092
:OTO032: CHARGE SPHERE 32    =    27.834627

:NEC02: NUCLEAR AND ELECTRONIC CHARGE    928.00000   928.00000
     
       CONVERGENCE TEST
:DTO001: DIFFERENCE IN SPHERE  1 =  0.0063147
:DTO002: DIFFERENCE IN SPHERE  2 =  0.0033944
:DTO003: DIFFERENCE IN SPHERE  3 =  0.0035217
:DTO004: DIFFERENCE IN SPHERE  4 =  0.0049957
:DTO005: DIFFERENCE IN SPHERE  5 =  0.0080238
:DTO006: DIFFERENCE IN SPHERE  6 =  0.0044484
:DTO007: DIFFERENCE IN SPHERE  7 =  0.0077216
:DTO008: DIFFERENCE IN SPHERE  8 =  0.0048851
:DTO009: DIFFERENCE IN SPHERE  9 =  0.0037482
:DTO010: DIFFERENCE IN SPHERE 10 =  0.0037845
:DTO011: DIFFERENCE IN SPHERE 11 =  0.0036434
:DTO012: DIFFERENCE IN SPHERE 12 =  0.0038080
:DTO013: DIFFERENCE IN SPHERE 13 =  0.0068575
:DTO014: DIFFERENCE IN SPHERE 14 =  0.0068574
:DTO015: DIFFERENCE IN SPHERE 15 =  0.0066327
:DTO016: DIFFERENCE IN SPHERE 16 =  0.0067085
:DTO017: DIFFERENCE IN SPHERE 17 =  0.0172055
:DTO018: DIFFERENCE IN SPHERE 18 =  0.0170925
:DTO019: DIFFERENCE IN SPHERE 19 =  0.0120040
:DTO020: DIFFERENCE IN SPHERE 20 =  0.0135902
:DTO021: DIFFERENCE IN SPHERE 21 =  0.0143481
:DTO022: DIFFERENCE IN SPHERE 22 =  0.0140054
:DTO023: DIFFERENCE IN SPHERE 23 =  0.0176931
:DTO024: DIFFERENCE IN SPHERE 24 =  0.0192728
:DTO025: DIFFERENCE IN SPHERE 25 =  0.0133904
:DTO026: DIFFERENCE IN SPHERE 26 =  0.0127724
:DTO027: DIFFERENCE IN SPHERE 27 =  0.0167494
:DTO028: DIFFERENCE IN SPHERE 28 =  0.0105857
:DTO029: DIFFERENCE IN SPHERE 29 =  0.0098932
:DTO030: DIFFERENCE IN SPHERE 30 =  0.0178887
:DTO031: DIFFERENCE IN SPHERE 31 =  0.0114965
:DTO032: DIFFERENCE IN SPHERE 32 =  0.0140017

:DIS  :  CHARGE DISTANCE       (  0.019273 for atom   24 spin 1)       0.009917
 
******************************************************
* MULTISECANT MIXING VER7 RELEASE 7.1.2              *
* Slow Mode, cautious                                *
* Hybrid mode active    2.500E-01                     *
* Upper Bound on PW scaling active                   *
* Regularization       1.000E-04                     *
* Step Trust Radius    0.75000                       *
* Greed Lower Bound    2.000E-02                     *
* Trust Upper Limit    5.000E+00                     *
* Charge change trust active                         *
* Max Number of Memory Steps   12                    *
******************************************************
 
:PLANE:  INTERSTITIAL TOTAL      1.83074 DISTAN  1.709E-01 % 
:CHARG:  CLM CHARGE   /ATOM     26.97944 DISTAN  3.968E-02 % 

Step History
      DMIX        Red     Pred      Trust     Lambda    MagRel    MagAbs     Beta
  9  2.85E-01  1.07E+00  4.34E-01  1.68E+00  2.07E+00  9.36E-02  5.46E-02  1.00E+00
 10  2.77E-01  8.86E-01  3.54E-01  1.14E+00  2.25E+00  7.04E-02  4.42E-02  1.00E+00
 11  2.05E-01  7.03E-01  3.94E-01  9.58E-01  2.46E+00  7.41E-02  4.13E-02  1.00E+00
 12  1.70E-01  1.17E+00  3.83E-01  7.55E-01  2.69E+00  1.41E-01  5.55E-02  1.00E+00
 13  1.57E-01  1.07E+00  4.26E-01  5.80E-01  3.00E+00  9.07E-02  4.18E-02  1.00E+00
 14  1.35E-01  9.76E-01  3.24E-01  4.03E-01  3.00E+00  4.34E-02  2.16E-02  1.00E+00
 15  9.48E-02  6.59E-01  2.75E-01  3.62E-01  3.00E+00  3.41E-02  1.66E-02  8.25E-01
 16  7.57E-02  8.92E-01  3.46E-01  2.74E-01  3.00E+00  3.16E-02  1.02E-02  1.00E+00
 17  5.84E-02  9.41E-01  4.24E-01  2.05E-01  3.00E+00  2.66E-02  7.85E-03  1.00E+00
 18  4.37E-02  1.14E+00  4.92E-01  1.38E-01  2.50E-01  3.50E-02  1.02E-02  1.00E+00
 19  2.63E-02  9.86E-01  3.61E-01  1.81E-01  2.50E-01  5.76E-02  2.04E-02  1.00E+00
 20  2.00E-02  1.12E+00  3.79E-01  1.72E-01  2.50E-01  4.80E-02  1.76E-02  1.00E+00
 21  2.00E-02 -1.00E+00  3.63E-01 -1.00E+01  1.00E+00  3.88E-02  1.69E-02  1.00E+00
  
:NORMS:  1/Froebius, Min, Max, Used   0.2732E+00  0.9684E-01  0.7751E+00  0.4215E+00
:INFO :  Number of Memory Steps   12 Skipping    8
:INFO :  SLambda=    0.2500000  Max    1.0000000

Eigenvalues, unscaled except for SY+YY
   #     SY Real        SY Imag          SS             YY         SY+YY Real      SY+YY Imag
   1   8.996699E-01   0.000000E+00   8.448594E-01   4.755476E+00   4.819748E+00   0.000000E+00
   2   7.872411E-02   0.000000E+00   3.790423E-02   2.427332E+00   2.471913E+00   0.000000E+00
   3   4.692019E-02   0.000000E+00   5.849140E-03   1.322193E+00   1.428622E+00   0.000000E+00
   4   2.954557E-02   4.028055E-03   2.759967E-03   1.148641E+00   1.164272E+00   0.000000E+00
   5   2.954557E-02  -4.028055E-03   1.660542E-03   6.896428E-01   7.031164E-01   0.000000E+00
   6   5.553083E-03   1.134076E-02   1.001118E-03   5.386780E-01   5.444953E-01   0.000000E+00
   7   5.553083E-03  -1.134076E-02   5.792059E-04   4.042904E-01   4.139438E-01   0.000000E+00
   8   5.946504E-03   0.000000E+00   5.358145E-04   2.624250E-01   2.716554E-01   0.000000E+00
   9   2.918440E-03   1.205280E-03   2.522439E-04   1.933253E-01   1.992238E-01   0.000000E+00
  10   2.918440E-03  -1.205280E-03   1.342138E-04   1.320271E-01   1.332960E-01   0.000000E+00
  11   1.173490E-03   0.000000E+00   6.005491E-05   8.268855E-02   8.379383E-02   0.000000E+00
  12   9.454673E-04   0.000000E+00   1.643859E-05   4.328178E-02   4.327464E-02   0.000000E+00

:INFO :  Singular value  4.820E+00 Weight  1.000E+00 Projection -1.444E-01
:INFO :  Singular value  2.472E+00 Weight  1.000E+00 Projection -8.993E-03
:INFO :  Singular value  1.429E+00 Weight  1.000E+00 Projection -2.260E-03
:INFO :  Singular value  1.164E+00 Weight  1.000E+00 Projection -1.376E-01
:INFO :  Singular value  7.031E-01 Weight  1.000E+00 Projection  5.832E-02
:INFO :  Singular value  5.445E-01 Weight  1.000E+00 Projection  8.725E-02
:INFO :  Singular value  4.140E-01 Weight  1.000E+00 Projection -3.007E-02
:INFO :  Singular value  2.717E-01 Weight  1.000E+00 Projection  3.464E-01
:INFO :  Singular value  1.992E-01 Weight  1.000E+00 Projection  1.601E-02
:INFO :  Singular value  1.333E-01 Weight  1.000E+00 Projection  8.599E-03
:INFO :  Singular value  8.379E-02 Weight  1.000E+00 Projection  2.234E-01
:INFO :  Singular value  4.327E-02 Weight  9.999E-01 Projection  1.484E-01
:RANK :  ACTIVE  12.00/12 = 100.00 %

:TRUST:  Step 1.62E-01  Charge 3.50E-02 (e)
:DIRM :  MEMORY 12/12 RESCALE   91.40 RED  0.97 PRED  0.36 NEXT  0.40 
:DIRP :  |MSR1|= 3.502E-02 |PRATT|= 2.859E-01 ANGLE=  75.9 DEGREES
:DIRQ :  |MSR1|= 1.238E-02 |PRATT|= 3.426E-01 ANGLE=  71.3 DEGREES
:DIRT :  |MSR1|= 3.714E-02 |PRATT|= 4.462E-01 ANGLE=  76.8 DEGREES
:MIX  :   MSD1   REGULARIZATION: 4.76E-04  GREED: 0.0200  Newton 1.00 0.083                
     
       CHARGES OF MIXED CHARGE DENSITY
:CTO   : INTERSTITIAL CHARGE =    37.293311
:CTO001: CHARGE SPHERE  1    =    27.833900
:CTO002: CHARGE SPHERE  2    =    27.835003
:CTO003: CHARGE SPHERE  3    =    27.834945
:CTO004: CHARGE SPHERE  4    =    27.834622
:CTO005: CHARGE SPHERE  5    =    27.834753
:CTO006: CHARGE SPHERE  6    =    27.835020
:CTO007: CHARGE SPHERE  7    =    27.834957
:CTO008: CHARGE SPHERE  8    =    27.833896
:CTO009: CHARGE SPHERE  9    =    27.834474
:CTO010: CHARGE SPHERE 10    =    27.834462
:CTO011: CHARGE SPHERE 11    =    27.834458
:CTO012: CHARGE SPHERE 12    =    27.834447
:CTO013: CHARGE SPHERE 13    =    27.834446
:CTO014: CHARGE SPHERE 14    =    27.834479
:CTO015: CHARGE SPHERE 15    =    27.834447
:CTO016: CHARGE SPHERE 16    =    27.834474
:CTO017: CHARGE SPHERE 17    =    27.835301
:CTO018: CHARGE SPHERE 18    =    27.835205
:CTO019: CHARGE SPHERE 19    =    27.834726
:CTO020: CHARGE SPHERE 20    =    27.834720
:CTO021: CHARGE SPHERE 21    =    27.833885
:CTO022: CHARGE SPHERE 22    =    27.833861
:CTO023: CHARGE SPHERE 23    =    27.834338
:CTO024: CHARGE SPHERE 24    =    27.834356
:CTO025: CHARGE SPHERE 25    =    27.835342
:CTO026: CHARGE SPHERE 26    =    27.834795
:CTO027: CHARGE SPHERE 27    =    27.835491
:CTO028: CHARGE SPHERE 28    =    27.834756
:CTO029: CHARGE SPHERE 29    =    27.833935
:CTO030: CHARGE SPHERE 30    =    27.834697
:CTO031: CHARGE SPHERE 31    =    27.833954
:CTO032: CHARGE SPHERE 32    =    27.834543

:NEC03: NUCLEAR AND ELECTRONIC CHARGE    928.00000   928.00000

PW CHANGE     H    K    L             Current                    Change               Residue
:PTO001:      0    0    0  3.59356744E-02 0.00000000E+00  6.024E-06  0.000E+00  1.258E-05  0.000E+00
:PTO002:     -1    0    0  3.93262852E-07 9.14408609E-06  2.988E-07  9.106E-08  7.557E-06  2.264E-06
:PTO003:      0   -1    0  1.10581475E-06-2.85291019E-07  2.475E-07  3.607E-09  2.446E-06  6.175E-06
:PTO004:      0    0   -1  5.01546784E-07-1.56459011E-07  1.436E-07  7.160E-09  1.376E-05 -4.604E-08
:PTO005:      0    0    1  5.01546784E-07 1.56459011E-07  1.436E-07 -7.160E-09  1.376E-05  4.604E-08
:PTO006:      0    1    0  1.10581475E-06 2.85291019E-07  2.475E-07 -3.607E-09  2.446E-06 -6.175E-06
:PTO007:      1    0    0  3.93262852E-07-9.14408609E-06  2.988E-07 -9.106E-08  7.557E-06 -2.264E-06
:PTO008:     -1   -1    0  5.75683283E-07 7.71769104E-06  5.568E-08  2.537E-08  2.411E-06  6.469E-06
:PTO009:     -1    0   -1  4.58306543E-07 7.37449189E-06 -3.228E-08 -6.658E-08  3.032E-06  4.439E-06
:PTO010:     -1    0    1  6.74817139E-07 7.37553413E-06 -1.016E-08 -7.152E-08  1.355E-06  1.729E-06
:PTO011:     -1    1    0  8.84169279E-07 7.43567700E-06  3.449E-08  5.320E-11 -9.536E-07  6.231E-06
:PTO012:      0   -1   -1  1.82065340E-06 2.33109893E-07 -1.256E-07  1.239E-08 -5.835E-06 -7.317E-08

:ENE  : ********** TOTAL ENERGY IN Ry =      -105919.69543089

       TOTAL FORCE IN mRy/a.u. = |F|     Fx             Fy             Fz     with/without FOR in case.in2
:FOR001:   1.ATOM       4.564964      -4.559156       0.024308       0.228910 total forces
:FOR002:   2.ATOM       0.462343       0.461493       0.001420      -0.027980 total forces
:FOR003:   3.ATOM       0.480590       0.465757       0.115272       0.027372 total forces
:FOR004:   4.ATOM       1.268802       1.265130      -0.096135       0.007840 total forces
:FOR005:   5.ATOM       0.161983      -0.144760      -0.024675       0.068368 total forces
:FOR006:   6.ATOM       0.450608      -0.377965      -0.197051       0.146155 total forces
:FOR007:   7.ATOM       0.348662      -0.082706       0.288957      -0.176717 total forces
:FOR008:   8.ATOM       0.757122       0.755793       0.032293      -0.031123 total forces
:FOR009:   9.ATOM       0.397997      -0.025352       0.082583       0.388508 total forces
:FOR010:  10.ATOM       0.491104      -0.042755       0.183580      -0.453491 total forces
:FOR011:  11.ATOM       0.284366      -0.121361      -0.107847       0.233461 total forces
:FOR012:  12.ATOM       0.439199      -0.099197      -0.267510      -0.333907 total forces
:FOR013:  13.ATOM       1.123503      -0.264498      -0.871574      -0.657767 total forces
:FOR014:  14.ATOM       0.962762      -0.219924      -0.754741       0.555797 total forces
:FOR015:  15.ATOM       0.953695      -0.232165       0.715202      -0.586618 total forces
:FOR016:  16.ATOM       1.088190      -0.162028       0.753927       0.767788 total forces
:FOR017:  17.ATOM       1.372701       1.119798      -0.047191       0.792549 total forces
:FOR018:  18.ATOM       1.499373       1.247436       0.028233      -0.831400 total forces
:FOR019:  19.ATOM       0.879510      -0.871903       0.113714       0.019832 total forces
:FOR020:  20.ATOM       0.858413      -0.848557      -0.098483       0.084405 total forces
:FOR021:  21.ATOM       1.364983       0.408644      -0.216754      -1.284215 total forces
:FOR022:  22.ATOM       1.112338       0.249455       0.009510       1.083963 total forces
:FOR023:  23.ATOM       0.278511       0.256293       0.108070      -0.014252 total forces
:FOR024:  24.ATOM       0.283264       0.156958      -0.041561       0.232111 total forces
:FOR025:  25.ATOM       1.280867       1.137164       0.586264      -0.061419 total forces
:FOR026:  26.ATOM       0.878913      -0.861463      -0.153271       0.082934 total forces
:FOR027:  27.ATOM       1.365716       1.203639      -0.645259       0.008628 total forces
:FOR028:  28.ATOM       0.718009      -0.628919       0.305273      -0.163724 total forces
:FOR029:  29.ATOM       1.330196       0.238723      -1.303439      -0.116103 total forces
:FOR030:  30.ATOM       0.297421       0.286364       0.009610       0.079764 total forces
:FOR031:  31.ATOM       1.171828       0.061347       1.167691       0.076915 total forces
:FOR032:  32.ATOM       0.401075       0.222201       0.300856      -0.144822 total forces
       TOTAL FORCE WITH RESPECT TO GLOBAL CARTESIAN COORDINATES:
:FCA001:   1.ATOM                     -4.559156       0.024308       0.228910 total forces
:FCA002:   2.ATOM                      0.461493       0.001420      -0.027980 total forces
:FCA003:   3.ATOM                      0.465757       0.115272       0.027372 total forces
:FCA004:   4.ATOM                      1.265130      -0.096135       0.007840 total forces
:FCA005:   5.ATOM                     -0.144760      -0.024675       0.068368 total forces
:FCA006:   6.ATOM                     -0.377965      -0.197051       0.146155 total forces
:FCA007:   7.ATOM                     -0.082706       0.288957      -0.176717 total forces
:FCA008:   8.ATOM                      0.755793       0.032293      -0.031123 total forces
:FCA009:   9.ATOM                     -0.025352       0.082583       0.388508 total forces
:FCA010:  10.ATOM                     -0.042755       0.183580      -0.453491 total forces
:FCA011:  11.ATOM                     -0.121361      -0.107847       0.233461 total forces
:FCA012:  12.ATOM                     -0.099197      -0.267510      -0.333907 total forces
:FCA013:  13.ATOM                     -0.264498      -0.871574      -0.657767 total forces
:FCA014:  14.ATOM                     -0.219924      -0.754741       0.555797 total forces
:FCA015:  15.ATOM                     -0.232165       0.715202      -0.586618 total forces
:FCA016:  16.ATOM                     -0.162028       0.753927       0.767788 total forces
:FCA017:  17.ATOM                      1.119798      -0.047191       0.792549 total forces
:FCA018:  18.ATOM                      1.247436       0.028233      -0.831400 total forces
:FCA019:  19.ATOM                     -0.871903       0.113714       0.019832 total forces
:FCA020:  20.ATOM                     -0.848557      -0.098483       0.084405 total forces
:FCA021:  21.ATOM                      0.408644      -0.216754      -1.284215 total forces
:FCA022:  22.ATOM                      0.249455       0.009510       1.083963 total forces
:FCA023:  23.ATOM                      0.256293       0.108070      -0.014252 total forces
:FCA024:  24.ATOM                      0.156958      -0.041561       0.232111 total forces
:FCA025:  25.ATOM                      1.137164       0.586264      -0.061419 total forces
:FCA026:  26.ATOM                     -0.861463      -0.153271       0.082934 total forces
:FCA027:  27.ATOM                      1.203639      -0.645259       0.008628 total forces
:FCA028:  28.ATOM                     -0.628919       0.305273      -0.163724 total forces
:FCA029:  29.ATOM                      0.238723      -1.303439      -0.116103 total forces
:FCA030:  30.ATOM                      0.286364       0.009610       0.079764 total forces
:FCA031:  31.ATOM                      0.061347       1.167691       0.076915 total forces
:FCA032:  32.ATOM                      0.222201       0.300856      -0.144822 total forces
       TOTAL FORCE WITH RESPECT TO THE GLOBAL COORDINATE SYSTEM:
:FGL001:   1.ATOM                -4.559156201     0.024307775     0.228909660 total forces
:FGL002:   2.ATOM                 0.461493092     0.001420204    -0.027980449 total forces
:FGL003:   3.ATOM                 0.465757236     0.115272178     0.027371884 total forces
:FGL004:   4.ATOM                 1.265130127    -0.096135200     0.007840424 total forces
:FGL005:   5.ATOM                -0.144760277    -0.024674802     0.068367629 total forces
:FGL006:   6.ATOM                -0.377965001    -0.197050583     0.146155013 total forces
:FGL007:   7.ATOM                -0.082705574     0.288957395    -0.176716747 total forces
:FGL008:   8.ATOM                 0.755792702     0.032292862    -0.031122822 total forces
:FGL009:   9.ATOM                -0.025352477     0.082583126     0.388508197 total forces
:FGL010:  10.ATOM                -0.042754960     0.183580277    -0.453490652 total forces
:FGL011:  11.ATOM                -0.121360994    -0.107847482     0.233461374 total forces
:FGL012:  12.ATOM                -0.099197235    -0.267510331    -0.333906597 total forces
:FGL013:  13.ATOM                -0.264498173    -0.871574277    -0.657767109 total forces
:FGL014:  14.ATOM                -0.219923928    -0.754740614     0.555796691 total forces
:FGL015:  15.ATOM                -0.232165150     0.715201634    -0.586618234 total forces
:FGL016:  16.ATOM                -0.162027559     0.753927457     0.767787726 total forces
:FGL017:  17.ATOM                 1.119797931    -0.047190916     0.792548552 total forces
:FGL018:  18.ATOM                 1.247435973     0.028232765    -0.831400009 total forces
:FGL019:  19.ATOM                -0.871902720     0.113713764     0.019831948 total forces
:FGL020:  20.ATOM                -0.848557297    -0.098483040     0.084405017 total forces
:FGL021:  21.ATOM                 0.408644390    -0.216754376    -1.284214603 total forces
:FGL022:  22.ATOM                 0.249454511     0.009510174     1.083963465 total forces
:FGL023:  23.ATOM                 0.256292879     0.108069990    -0.014251869 total forces
:FGL024:  24.ATOM                 0.156957721    -0.041561423     0.232110815 total forces
:FGL025:  25.ATOM                 1.137163917     0.586264166    -0.061418909 total forces
:FGL026:  26.ATOM                -0.861462814    -0.153271019     0.082934482 total forces
:FGL027:  27.ATOM                 1.203639313    -0.645259179     0.008627749 total forces
:FGL028:  28.ATOM                -0.628919389     0.305272640    -0.163723706 total forces
:FGL029:  29.ATOM                 0.238723324    -1.303439039    -0.116103377 total forces
:FGL030:  30.ATOM                 0.286364427     0.009610327     0.079764156 total forces
:FGL031:  31.ATOM                 0.061346563     1.167690788     0.076914627 total forces
:FGL032:  32.ATOM                 0.222200928     0.300855618    -0.144822185 total forces
:FCHECK:   Sum of forces         -0.006514716     0.001270860     0.001762141
