# Structure data of Fe2VTaAl (2x2x2 conventional) 

128 atoms
4 atom types

0.0 11.4153280258 xlo xhi
0.0 11.4153280258 ylo yhi
0.0 11.4153280258 zlo zhi
0.000000    0.000000    0.000000   xy xz yz

Masses

1 26.981538  # Al
2 50.9415  # V
3 55.845  # Fe
4 180.9479  # Ta

Atoms  # atomic

1 1 2.8538313215 8.5614953344 8.5614953344
2 1 2.8538313215 8.5614953344 2.8538313215
3 1 2.8538313215 2.8538313215 8.5614953344
4 1 2.8538313215 2.8538313215 2.8538313215
5 1 8.5614953344 8.5614953344 8.5614953344
6 1 8.5614953344 8.5614953344 2.8538313215
7 1 8.5614953344 2.8538313215 8.5614953344
8 1 8.5614953344 2.8538313215 2.8538313215
9 1 2.8538313215 0.0 0.0
10 1 2.8538313215 0.0 5.7076640129
11 1 2.8538313215 5.7076640129 0.0
12 1 2.8538313215 5.7076640129 5.7076640129
13 1 8.5614953344 0.0 0.0
14 1 8.5614953344 0.0 5.7076640129
15 1 8.5614953344 5.7076640129 0.0
16 1 8.5614953344 5.7076640129 5.7076640129
17 1 5.7076640129 8.5614953344 0.0
18 1 5.7076640129 8.5614953344 5.7076640129
19 1 5.7076640129 2.8538313215 0.0
20 1 5.7076640129 2.8538313215 5.7076640129
21 1 0.0 8.5614953344 0.0
22 1 0.0 8.5614953344 5.7076640129
23 1 0.0 2.8538313215 0.0
24 1 0.0 2.8538313215 5.7076640129
25 1 5.7076640129 0.0 8.5614953344
26 1 5.7076640129 0.0 2.8538313215
27 1 5.7076640129 5.7076640129 8.5614953344
28 1 5.7076640129 5.7076640129 2.8538313215
29 1 0.0 0.0 8.5614953344
30 1 0.0 0.0 2.8538313215
31 1 0.0 5.7076640129 8.5614953344
32 1 0.0 5.7076640129 2.8538313215
33 2 5.7076640129 8.5614953344 8.5614953344
34 2 5.7076640129 8.5614953344 2.8538313215
35 2 5.7076640129 2.8538313215 8.5614953344
36 2 5.7076640129 2.8538313215 2.8538313215
37 2 0.0 8.5614953344 8.5614953344
38 2 0.0 8.5614953344 2.8538313215
39 2 0.0 2.8538313215 8.5614953344
40 2 0.0 2.8538313215 2.8538313215
41 2 5.7076640129 0.0 0.0
42 2 5.7076640129 0.0 5.7076640129
43 2 5.7076640129 5.7076640129 0.0
44 2 5.7076640129 5.7076640129 5.7076640129
45 2 0.0 0.0 5.7076640129
46 2 0.0 5.7076640129 0.0
47 2 0.0 5.7076640129 5.7076640129
48 2 2.8538313215 8.5614953344 0.0
49 2 2.8538313215 8.5614953344 5.7076640129
50 2 2.8538313215 2.8538313215 0.0
51 2 2.8538313215 2.8538313215 5.7076640129
52 2 8.5614953344 8.5614953344 0.0
53 2 8.5614953344 8.5614953344 5.7076640129
54 2 8.5614953344 2.8538313215 0.0
55 2 8.5614953344 2.8538313215 5.7076640129
56 2 2.8538313215 0.0 8.5614953344
57 2 2.8538313215 0.0 2.8538313215
58 2 2.8538313215 5.7076640129 8.5614953344
59 2 2.8538313215 5.7076640129 2.8538313215
60 2 8.5614953344 0.0 8.5614953344
61 2 8.5614953344 0.0 2.8538313215
62 2 8.5614953344 5.7076640129 8.5614953344
63 2 8.5614953344 5.7076640129 2.8538313215
64 3 4.2807473248 1.4269159233 1.4269159233
65 3 4.2807473248 1.4269159233 7.1345800161
66 3 4.2807473248 7.1345800161 1.4269159233
67 3 4.2807473248 7.1345800161 7.1345800161
68 3 9.9884113377 1.4269159233 1.4269159233
69 3 9.9884113377 1.4269159233 7.1345800161
70 3 9.9884113377 7.1345800161 1.4269159233
71 3 9.9884113377 7.1345800161 7.1345800161
72 3 4.2807473248 9.9884113377 1.4269159233
73 3 4.2807473248 9.9884113377 7.1345800161
74 3 4.2807473248 4.2807473248 1.4269159233
75 3 4.2807473248 4.2807473248 7.1345800161
76 3 9.9884113377 9.9884113377 1.4269159233
77 3 9.9884113377 9.9884113377 7.1345800161
78 3 9.9884113377 4.2807473248 1.4269159233
79 3 9.9884113377 4.2807473248 7.1345800161
80 3 4.2807473248 9.9884113377 9.9884113377
81 3 4.2807473248 9.9884113377 4.2807473248
82 3 4.2807473248 4.2807473248 9.9884113377
83 3 4.2807473248 4.2807473248 4.2807473248
84 3 9.9884113377 9.9884113377 9.9884113377
85 3 9.9884113377 9.9884113377 4.2807473248
86 3 9.9884113377 4.2807473248 9.9884113377
87 3 9.9884113377 4.2807473248 4.2807473248
88 3 4.2807473248 1.4269159233 9.9884113377
89 3 4.2807473248 1.4269159233 4.2807473248
90 3 4.2807473248 7.1345800161 9.9884113377
91 3 4.2807473248 7.1345800161 4.2807473248
92 3 9.9884113377 1.4269159233 9.9884113377
93 3 9.9884113377 1.4269159233 4.2807473248
94 3 9.9884113377 7.1345800161 9.9884113377
95 3 9.9884113377 7.1345800161 4.2807473248
96 3 7.1345800161 1.4269159233 9.9884113377
97 3 7.1345800161 1.4269159233 4.2807473248
98 3 7.1345800161 7.1345800161 9.9884113377
99 3 7.1345800161 7.1345800161 4.2807473248
100 3 1.4269160032 1.4269159233 9.9884113377
101 3 1.4269160032 1.4269159233 4.2807473248
102 3 1.4269160032 7.1345800161 9.9884113377
103 3 1.4269160032 7.1345800161 4.2807473248
104 3 7.1345800161 9.9884113377 9.9884113377
105 3 7.1345800161 9.9884113377 4.2807473248
106 3 7.1345800161 4.2807473248 9.9884113377
107 3 7.1345800161 4.2807473248 4.2807473248
108 3 1.4269160032 9.9884113377 9.9884113377
109 3 1.4269160032 9.9884113377 4.2807473248
110 3 1.4269160032 4.2807473248 9.9884113377
111 3 1.4269160032 4.2807473248 4.2807473248
112 3 7.1345800161 9.9884113377 1.4269159233
113 3 7.1345800161 9.9884113377 7.1345800161
114 3 7.1345800161 4.2807473248 1.4269159233
115 3 7.1345800161 4.2807473248 7.1345800161
116 3 1.4269160032 9.9884113377 1.4269159233
117 3 1.4269160032 9.9884113377 7.1345800161
118 3 1.4269160032 4.2807473248 1.4269159233
119 3 1.4269160032 4.2807473248 7.1345800161
120 3 7.1345800161 1.4269159233 1.4269159233
121 3 7.1345800161 1.4269159233 7.1345800161
122 3 7.1345800161 7.1345800161 1.4269159233
123 3 7.1345800161 7.1345800161 7.1345800161
124 3 1.4269160032 1.4269159233 1.4269159233
125 3 1.4269160032 1.4269159233 7.1345800161
126 3 1.4269160032 7.1345800161 1.4269159233
127 3 1.4269160032 7.1345800161 7.1345800161
128 4 0.0 0.0 0.0
