LAMMPS (2 Aug 2023)
units           metal
atom_style      charge
boundary        p p p

read_data       SC222.lammps
Reading data file ...
  triclinic box = (0 0 0) to (2.868779 4.634475 5.832507) with tilt (0 0 0)
  1 by 1 by 1 MPI processor grid
  reading atoms ...
  8 atoms
  read_data CPU = 0.003 seconds

replicate 1 1 1
Replication is creating a 1x1x1 = 1 times larger system...
  triclinic box = (0 0 0) to (2.868779 4.634475 5.832507) with tilt (0 0 0)
  1 by 1 by 1 MPI processor grid
  8 atoms
  replicate CPU = 0.000 seconds

#set type 1 charge +1
#set type 2 charge +3
#set type 3 charge -2

pair_style    chgnet /mnt/d/lammps/src/ML-CHGNET
#pair_style    chgnet/d3 /mnt/d/lammps/potentials/CHGNET
#pair_style    chgnet/gpu /mnt/d/lammps/potentials/CHGNET
#pair_style    chgnet/d3/gpu /mnt/d/lammps/potentials/CHGNET

variable elem string "Li Mn O"

pair_coeff    * *  0.3.0 ${elem}
pair_coeff    * *  0.3.0 Li Mn O
#pair_coeff    * *  path ./users_model.pt ${elem}

thermo 100
thermo_style custom step time cpu cpuremain lx ly lz press pe temp

velocity all create 300 12345 mom yes rot no

fix 1 all npt temp 300 300 100 iso 0 0 1000

#dump            1 all custom 1 XFSET id xu yu zu fx fy fz
#dump_modify     1 format float "%20.15f"

dump            d1 all cfg 100 cfg/run.*.cfg mass type xs ys zs id type vx vy vz fx fy fz q
dump_modify     d1 element ${elem}
dump_modify     d1 element Li Mn O

run             10000
Neighbor list info ...
  update: every = 1 steps, delay = 0 steps, check = yes
  max neighbors/atom: 2000, page size: 100000
  master list distance cutoff = 8
  ghost atom cutoff = 8
  binsize = 4, bins = 1 2 2
  1 neighbor lists, perpetual/occasional/extra = 1 0 0
  (1) pair chgnet, perpetual
      attributes: full, newton on
      pair build: full/bin/atomonly
      stencil: full/bin/3d
      bin: standard
Per MPI rank memory allocation (min/avg/max) = 3.119 | 3.119 | 3.119 Mbytes
   Step          Time           CPU          CPULeft           Lx             Ly             Lz           Press          PotEng          Temp     
         0   0              0              0              2.868779       4.634475       5.832507       4367.6153     -58.941532      300          
       100   0.1            4.6726055      462.588        2.868779       4.6344751      5.8325071      30292.601     -58.831345      178.35348    
       200   0.2            9.5140561      466.18879      2.8687792      4.6344753      5.8325074     -4285.0755     -58.78968       132.2855     
       300   0.3            14.6991        475.27093      2.8687794      4.6344757      5.8325079      34591.617     -58.834782      182.17612    
       400   0.4            19.871575      476.91785      2.8687797      4.6344762      5.8325085      13895.573     -58.813904      159.10704    
       500   0.5            24.865991      472.45384      2.8687801      4.6344768      5.8325093     -4042.0156     -58.848103      196.83038    
       600   0.6            29.993783      469.90261      2.8687806      4.6344775      5.8325102      23202.304     -58.831573      178.71671    
       700   0.7            35.039255      465.52154      2.8687811      4.6344784      5.8325113      1656.1114     -58.781788      123.69113    
       800   0.8            39.928665      459.17966      2.8687817      4.6344794      5.8325126      3414.7912     -58.840637      188.64011    
       900   0.9            44.423517      449.17113      2.8687824      4.6344805      5.8325139      15075.389     -58.86507       215.60767    
      1000   1              49.007863      441.07078      2.8687832      4.6344817      5.8325155      7408.7677     -58.796452      139.90882    
      1100   1.1            53.907843      436.16347      2.868784       4.6344831      5.8325172      25503.683     -58.793549      136.71863    
      1200   1.2            59.26099       434.58061      2.8687849      4.6344846      5.832519       11965.178     -58.83205       179.02038    
      1300   1.3            64.275037      430.14833      2.8687859      4.6344862      5.8325211     -2098.5405     -58.754154      93.180898    
      1400   1.4            69.165418      424.87329      2.868787       4.634488       5.8325233      6413.6698     -58.87645       228.17695    
      1500   1.5            74.573388      422.58254      2.8687882      4.6344898      5.8325257      13565.741     -58.796646      140.09311    
      1600   1.6            79.798033      418.93968      2.8687894      4.6344919      5.8325282      11720.183     -58.770939      111.69874    
      1700   1.7            84.895718      414.49087      2.8687908      4.634494       5.8325309      7799.8155     -58.826797      173.19671    
      1800   1.8            89.462183      407.54995      2.8687922      4.6344963      5.8325338      16044.098     -58.786175      128.43685    
      1900   1.9            94.765365      403.99972      2.8687936      4.6344987      5.8325368      14706.123     -58.821827      167.81698    
      2000   2              99.950024      399.8001       2.8687952      4.6345012      5.83254        10531.536     -58.806141      150.46148    
      2100   2.1            105.06628      395.24936      2.8687968      4.6345038      5.8325433      13993.542     -58.758991      98.374308    
      2200   2.2            109.96594      389.87926      2.8687985      4.6345066      5.8325467      5595.7052     -58.816326      161.65686    
      2300   2.3            115.02809      385.09405      2.8688003      4.6345095      5.8325504      17438.875     -58.754143      92.986556    
      2400   2.4            119.90057      379.68515      2.8688022      4.6345125      5.8325542      16564.151     -58.780117      121.60766    
      2500   2.5            124.84736      374.54209      2.8688041      4.6345156      5.8325581      5390.034      -58.800003      143.62875    
      2600   2.6            130.20916      370.5953       2.8688061      4.6345188      5.8325622      13431.903     -58.801147      144.92402    
      2700   2.7            135.06806      365.18403      2.8688082      4.6345222      5.8325664      5265.8332     -58.815613      160.93211    
      2800   2.8            139.92818      359.81532      2.8688104      4.6345257      5.8325708      7153.0987     -58.770142      110.69183    
      2900   2.9            144.81132      354.53806      2.8688127      4.6345294      5.8325754      15819.133     -58.818443      164.12512    
      3000   3              149.78673      349.50237      2.868815       4.6345331      5.8325802      9475.7129     -58.824455      170.75323    
      3100   3.1            154.74348      344.42903      2.8688174      4.634537       5.8325851     -311.4576      -58.856956      206.57862    
      3200   3.2            159.86301      339.70891      2.8688199      4.634541       5.8325901      18238.943     -58.825672      172.11789    
      3300   3.3            165.07564      335.15358      2.8688224      4.6345452      5.8325953      17246.649     -58.839958      187.92805    
      3400   3.4            170.32387      330.6287       2.8688251      4.6345495      5.8326007      17009.193     -58.803566      147.73794    
      3500   3.5            175.47938      325.89028      2.8688279      4.6345539      5.8326063      25721.285     -58.794823      138.11365    
      3600   3.6            180.2317       320.41192      2.8688307      4.6345585      5.8326121      3292.5987     -58.777786      119.25513    
      3700   3.7            185.06776      315.11538      2.8688336      4.6345632      5.832618       27756.396     -58.761158      100.80696    
      3800   3.8            190.02816      310.04595      2.8688366      4.634568       5.832624       15418.898     -58.804985      149.04313    
      3900   3.9            195.20725      305.32417      2.8688396      4.6345729      5.8326302      821.73778     -58.758125      97.422102    
      4000   4              200.54285      300.81428      2.8688428      4.634578       5.8326366      39193.439     -58.769779      110.29773    
      4100   4.1            205.76804      296.10523      2.868846       4.6345832      5.8326432      9476.1404     -58.842918      190.87732    
      4200   4.2            210.8116       291.12078      2.8688493      4.6345885      5.8326499     -8923.0578     -58.790802      133.31894    
      4300   4.3            216.08986      286.4447       2.8688526      4.634594       5.8326567      28101.855     -58.775192      116.03516    
      4400   4.4            221.46095      281.85939      2.8688561      4.6345996      5.8326638      20454.742     -58.805984      150.08552    
      4500   4.5            226.5902       276.94358      2.8688597      4.6346053      5.832671      -7916.4043     -58.768192      108.57572    
      4600   4.6            231.75263      272.05743      2.8688633      4.6346112      5.8326784      21624.385     -58.808235      152.73828    
      4700   4.7            236.99356      267.24805      2.868867       4.6346172      5.832686       25727.459     -58.792484      135.33556    
      4800   4.8            242.26517      262.45394      2.8688709      4.6346234      5.8326938      465.95907     -58.737732      74.92624     
      4900   4.9            247.58347      257.68892      2.8688747      4.6346297      5.8327016      17877.897     -58.793098      135.97659    
      5000   5              252.7985       252.7985       2.8688787      4.634636       5.8327097      18670.728     -58.814396      159.54477    
      5100   5.1            257.69782      247.59202      2.8688827      4.6346426      5.8327179      6976.3824     -58.758018      97.349489    
ERROR: Cannot calculate energy, forces, stress and magmoms by python of CHGNet. (../pair_chgnet.cpp:754)
Last command: run             10000
