# Structure data of Li (2x2x2 conventional) 

16 atoms
1 atom types

0.0 6.8786249161 xlo xhi
0.0 6.8786249161 ylo yhi
0.0 6.8786249161 zlo zhi
0.000000    0.000000    0.000000   xy xz yz

Masses

1 6.941  # Li

Atoms  # atomic

1 1 0.0 0.0 0.0
2 1 0.0 0.0 3.439312458
3 1 0.0 3.439312458 0.0
4 1 0.0 3.439312458 3.439312458
5 1 3.439312458 0.0 0.0
6 1 3.439312458 0.0 3.439312458
7 1 3.439312458 3.439312458 0.0
8 1 3.439312458 3.439312458 3.439312458
9 1 1.719656229 1.719656229 1.719656229
10 1 1.719656229 1.719656229 5.1589686871
11 1 1.719656229 5.1589686871 1.719656229
12 1 1.719656229 5.1589686871 5.1589686871
13 1 5.1589686871 1.719656229 1.719656229
14 1 5.1589686871 1.719656229 5.1589686871
15 1 5.1589686871 5.1589686871 1.719656229
16 1 5.1589686871 5.1589686871 5.1589686871
