Disp. Num. 1 ( 0.010000 Angstrom, 1 : +x)

32 atoms
1 atom types

0.000000    7.242524   xlo xhi
0.000000    7.242524   ylo yhi
0.000000    7.242524   zlo zhi
0.000000    0.000000    0.000000   xy xz yz

Masses

1 63.546 000999 Cu 2.22 29

Atoms

    1   1   0.010000000000000   0.000000000000000   0.000000000000000
    2   1   0.000000000000000   0.000000000000000   3.621262000000000
    3   1   0.000000000000000   3.621262000000000   0.000000000000000
    4   1   0.000000000000000   3.621262000000000   3.621262000000000
    5   1   3.621262000000000   0.000000000000000   0.000000000000000
    6   1   3.621262000000000   0.000000000000000   3.621262000000000
    7   1   3.621262000000000   3.621262000000000   0.000000000000000
    8   1   3.621262000000000   3.621262000000000   3.621262000000000
    9   1   0.000000000000000   1.810631000000000   1.810631000000000
   10   1   0.000000000000000   1.810631000000000   5.431893000000000
   11   1   0.000000000000000   5.431893000000000   1.810631000000000
   12   1   0.000000000000000   5.431893000000000   5.431893000000000
   13   1   3.621262000000000   1.810631000000000   1.810631000000000
   14   1   3.621262000000000   1.810631000000000   5.431893000000000
   15   1   3.621262000000000   5.431893000000000   1.810631000000000
   16   1   3.621262000000000   5.431893000000000   5.431893000000000
   17   1   1.810631000000000   0.000000000000000   1.810631000000000
   18   1   1.810631000000000   0.000000000000000   5.431893000000000
   19   1   1.810631000000000   3.621262000000000   1.810631000000000
   20   1   1.810631000000000   3.621262000000000   5.431893000000000
   21   1   5.431893000000000   0.000000000000000   1.810631000000000
   22   1   5.431893000000000   0.000000000000000   5.431893000000000
   23   1   5.431893000000000   3.621262000000000   1.810631000000000
   24   1   5.431893000000000   3.621262000000000   5.431893000000000
   25   1   1.810631000000000   1.810631000000000   0.000000000000000
   26   1   1.810631000000000   1.810631000000000   3.621262000000000
   27   1   1.810631000000000   5.431893000000000   0.000000000000000
   28   1   1.810631000000000   5.431893000000000   3.621262000000000
   29   1   5.431893000000000   1.810631000000000   0.000000000000000
   30   1   5.431893000000000   1.810631000000000   3.621262000000000
   31   1   5.431893000000000   5.431893000000000   0.000000000000000
   32   1   5.431893000000000   5.431893000000000   3.621262000000000

