ITEM: TIMESTEP
0
ITEM: NUMBER OF ATOMS
32
ITEM: BOX BOUNDS xy xz yz pp pp pp
0.0000000000000000e+00 7.2425240000000004e+00 0.0000000000000000e+00
0.0000000000000000e+00 7.2425240000000004e+00 0.0000000000000000e+00
0.0000000000000000e+00 7.2425240000000004e+00 0.0000000000000000e+00
ITEM: ATOMS id xu yu zu fx fy fz
     1    0.009994683120000    0.000000000000000    0.000000000000000   -0.177322871852399    0.000945430331620    0.008903178262760
     2    0.000000000000000    0.000000000000000    3.621262000000000    0.017949213428928    0.000055229186725   -0.001088248341235
     3    0.000000000000000    3.621262000000000    0.000000000000000    0.018115056564276    0.004483365360643    0.001064600914806
     4    0.000000000000000    3.621262000000000    3.621262000000000    0.049205704930173   -0.003739054835046    0.000304927340789
     5    3.621262000000000    0.000000000000000    0.000000000000000   -0.005630265542428   -0.000959704353823    0.002659090871820
     6    3.621262000000000    0.000000000000000    3.621262000000000   -0.014700492648133   -0.007664060896663    0.005684522384316
     7    3.621262000000000    3.621262000000000    0.000000000000000   -0.003216750082565    0.011238633879133   -0.006873194500285
     8    3.621262000000000    3.621262000000000    3.621262000000000    0.029395656846561    0.001255997272462   -0.001210491534105
     9    0.000000000000000    1.810631000000000    1.810631000000000   -0.000986035452001    0.003211966145968    0.015110549912666
    10    0.000000000000000    1.810631000000000    5.431893000000001   -0.001662904139724    0.007140122604856   -0.017637985293597
    11    0.000000000000000    5.431893000000001    1.810631000000000   -0.004720189669070   -0.004194578944144    0.009080183916833
    12    0.000000000000000    5.431893000000001    5.431893000000001   -0.003858147630645   -0.010404478690625   -0.012986909895520
    13    3.621262000000000    1.810631000000000    1.810631000000000   -0.010287330584699   -0.033898819148080   -0.025583053848067
    14    3.621262000000000    1.810631000000000    5.431893000000001   -0.008553678634657   -0.029354740575833    0.021617053728135
    15    3.621262000000000    5.431893000000001    1.810631000000000   -0.009029777560499    0.027816918875902   -0.022815799336612
    16    3.621262000000000    5.431893000000001    5.431893000000001   -0.006301883568033    0.029323081027950    0.029862187899210
    17    1.810631000000000    0.000000000000000    1.810631000000000    0.043553192137881   -0.001835437007548    0.030825237119271
    18    1.810631000000000    0.000000000000000    5.431893000000001    0.048517518148550    0.001098088470982   -0.032336299889296
    19    1.810631000000000    3.621262000000000    1.810631000000000   -0.033911615206131    0.004422768830420    0.000771341712057
    20    1.810631000000000    3.621262000000000    5.431893000000001   -0.033003600703827   -0.003830377462109    0.003282830637667
    21    5.431893000000001    0.000000000000000    1.810631000000000    0.015893715337938   -0.008430385309363   -0.049947992978509
    22    5.431893000000001    0.000000000000000    5.431893000000001    0.009702251249560    0.000369879975881    0.042159433048955
    23    5.431893000000001    3.621262000000000    1.810631000000000    0.009968207009294    0.004203252260087   -0.000554314344506
    24    5.431893000000001    3.621262000000000    5.431893000000001    0.006104692035151   -0.001616464950324    0.009027677295651
    25    1.810631000000000    1.810631000000000    0.000000000000000    0.044228621755246    0.022802030933724   -0.002388817901011
    26    1.810631000000000    1.810631000000000    3.621262000000000   -0.033505564002325   -0.005961290618634    0.003225617867475
    27    1.810631000000000    5.431893000000001    0.000000000000000    0.046814086676032   -0.025096570279369    0.000335575650042
    28    1.810631000000000    5.431893000000001    3.621262000000000   -0.024461045694102    0.011873225013357   -0.006367847441755
    29    5.431893000000001    1.810631000000000    0.000000000000000    0.009284843058062   -0.050695687264138   -0.004515686103015
    30    5.431893000000001    1.810631000000000    3.621262000000000    0.011137782272671    0.000373769355227    0.003102324542182
    31    5.431893000000001    5.431893000000001    0.000000000000000    0.002386017547881    0.045415932588444    0.002991516124591
    32    5.431893000000001    5.431893000000001    3.621262000000000    0.008642239802383    0.011701431127609   -0.005632676957623
