# Structure data of Cd (2x2x2 conventional) 

16 atoms
1 atom types

0.0 6.0156917572 xlo xhi
0.0 5.2097414826 ylo yhi
0.0 11.8839263916 zlo zhi
-3.0078465723 0.0 0.0 xy xz yz

Masses

1 112.411  # Cd

Atoms  # atomic

1 1 1.5039228658 0.8682902749 4.4564723968
2 1 1.5039228658 0.8682902749 10.3984355926
3 1 -4.6547452648e-07 3.4731610943 4.4564723968
4 1 -4.6547452648e-07 3.4731610943 10.3984355926
5 1 4.5117689249 0.8682902749 4.4564723968
6 1 4.5117689249 0.8682902749 10.3984355926
7 1 3.0078455936 3.4731610943 4.4564723968
8 1 3.0078455936 3.4731610943 10.3984355926
9 1 -2.2822549428e-07 1.7365805446 1.4854907989
10 1 -2.2822549428e-07 1.7365805446 7.4274539947
11 1 -1.5039236046 4.3414514422 1.4854907989
12 1 -1.5039236046 4.3414514422 7.4274539947
13 1 3.0078457406 1.7365805446 1.4854907989
14 1 3.0078457406 1.7365805446 7.4274539947
15 1 1.5039223642 4.3414514422 1.4854907989
16 1 1.5039223642 4.3414514422 7.4274539947
