# Structure data of Zr (2x2x2 conventional) 

16 atoms
1 atom types

0.0 6.4784636497 xlo xhi
0.0 5.6105140982 ylo yhi
0.0 10.3444404602 zlo zhi
-3.2392318249 0.0 0.0 xy xz yz

Masses

1 91.224  # Zr

Atoms  # atomic

1 1 1.6196159578 0.935085713 3.8791651726
2 1 1.6196159578 0.935085713 9.0513854027
3 1 -3.2725648857e-09 3.7403428462 3.8791651726
4 1 -3.2725648857e-09 3.7403428462 9.0513854027
5 1 4.858847977 0.935085713 3.8791651726
6 1 4.858847977 0.935085713 9.0513854027
7 1 3.2392320159 3.7403428462 3.8791651726
8 1 3.2392320159 3.7403428462 9.0513854027
9 1 3.2225651037e-09 1.8701714203 1.2930550575
10 1 3.2225651037e-09 1.8701714203 6.4652752876
11 1 -1.6196160064 4.6754286377 1.2930550575
12 1 -1.6196160064 4.6754286377 6.4652752876
13 1 3.2392319252 1.8701714203 1.2930550575
14 1 3.2392319252 1.8701714203 6.4652752876
15 1 1.6196159156 4.6754286377 1.2930550575
16 1 1.6196159156 4.6754286377 6.4652752876
