ITEM: TIMESTEP
0
ITEM: NUMBER OF ATOMS
64
ITEM: BOX BOUNDS xy xz yz pp pp pp
0.0000000000000000e+00 1.0800000000000001e+01 0.0000000000000000e+00
0.0000000000000000e+00 1.0800000000000001e+01 0.0000000000000000e+00
0.0000000000000000e+00 1.0800000000000001e+01 0.0000000000000000e+00
ITEM: ATOMS id xu yu zu fx fy fz 
1    0.010000000000000    0.000000000000000    0.000000000000000   -0.057072516530752   -0.062524005770683   -0.276811718940735 
2    0.000000000000000    0.000000000000000    5.400000000000000   -0.001253482303582    0.000760204624385   -0.013966118916869 
3    0.000000000000000    2.700000000000000    2.700000000000000   -0.000384163431590    0.000583739834838   -0.003291174070910 
4    0.000000000000000    2.700000000000000    8.100000000000000   -0.003084274474531    0.002702698810026    0.020415129140019 
5    0.000000000000000    5.400000000000000    0.000000000000000    0.004063900094479    0.002042746869847   -0.267834722995758 
6    0.000000000000000    5.400000000000000    5.400000000000000   -0.000799617671873   -0.000959504570346   -0.011885412037373 
7    0.000000000000000    8.100000000000000    2.700000000000000    0.001696763560176    0.003355868626386   -0.001946493983269 
8    0.000000000000000    8.100000000000000    8.100000000000000   -0.000884451961610   -0.000584069115575    0.029039340093732 
9    1.350000000000000    1.350000000000000    1.350000000000000    0.000687752210069    0.001405138173141   -0.010954802855849 
10    1.350000000000000    1.350000000000000    6.750000000000000    0.001494361087680   -0.002207983285189    0.006567954551429 
11    1.350000000000000    4.050000000000000    4.050000000000000    0.001529606408440   -0.003937503788620    0.009586755186319 
12    1.350000000000000    4.050000000000000    9.449999999999999    0.005309322383255    0.006483159493655    0.265175223350525 
13    1.350000000000000    6.750000000000000    1.350000000000000   -0.000700109696481   -0.000386735133361   -0.008417692966759 
14    1.350000000000000    6.750000000000000    6.750000000000000    0.002698282245547    0.000535521190614    0.001560330158100 
15    1.350000000000000    9.449999999999999    4.050000000000000   -0.001988836098462   -0.000661842059344    0.014810350723565 
16    1.350000000000000    9.449999999999999    9.449999999999999    0.003391460282728    0.003898898838088    0.264582723379135 
17    2.700000000000000    0.000000000000000    2.700000000000000    0.000519484747201    0.000051251714467   -0.003309461986646 
18    2.700000000000000    0.000000000000000    8.100000000000000    0.000087027969130    0.002055224264041    0.016722382977605 
19    2.700000000000000    2.700000000000000    0.000000000000000   -0.001143600908108   -0.003785038366914   -0.261893540620804 
20    2.700000000000000    2.700000000000000    5.400000000000000   -0.001961353933439   -0.000134494010126   -0.012639069929719 
21    2.700000000000000    5.400000000000000    2.700000000000000   -0.001280135242268   -0.003018595045432   -0.004342291038483 
22    2.700000000000000    5.400000000000000    8.100000000000000    0.001922489260323    0.001952208695002    0.007432890124619 
23    2.700000000000000    8.100000000000000    0.000000000000000   -0.008166714571416    0.002976831514388   -0.275481879711151 
24    2.700000000000000    8.100000000000000    5.400000000000000   -0.000086490836111   -0.002647182904184   -0.011521684005857 
25    4.050000000000000    1.350000000000000    4.050000000000000   -0.003837711643428    0.001218713121489    0.010578690096736 
26    4.050000000000000    1.350000000000000    9.449999999999999    0.018451547250152   -0.008467516861856    0.256946891546249 
27    4.050000000000000    4.050000000000000    1.350000000000000    0.000971031840891    0.001152364537120   -0.016572730615735 
28    4.050000000000000    4.050000000000000    6.750000000000000   -0.000337333854986    0.000261681270786    0.010353436693549 
29    4.050000000000000    6.750000000000000    4.050000000000000    0.000664161052555    0.000221559545025    0.011904514394701 
30    4.050000000000000    6.750000000000000    9.449999999999999    0.007817491889000   -0.001881090691313    0.257744252681732 
31    4.050000000000000    9.449999999999999    1.350000000000000   -0.004607910756022    0.002270864322782   -0.019964527338743 
32    4.050000000000000    9.449999999999999    6.750000000000000   -0.002813377650455   -0.000364773790352    0.007300921250135 
33    5.400000000000000    0.000000000000000    0.000000000000000    0.000713437795639    0.013307806104422   -0.252426505088806 
34    5.400000000000000    0.000000000000000    5.400000000000000   -0.001848480082117    0.001314341789111   -0.012033632025123 
35    5.400000000000000    2.700000000000000    2.700000000000000   -0.000737108464818    0.001495892298408   -0.006808348000050 
36    5.400000000000000    2.700000000000000    8.100000000000000   -0.003656527027488   -0.002676883479580    0.018548214808106 
37    5.400000000000000    5.400000000000000    0.000000000000000   -0.003706468967721    0.010185412131250   -0.260945409536362 
38    5.400000000000000    5.400000000000000    5.400000000000000    0.001822144142352    0.004813281819224   -0.013724116608500 
39    5.400000000000000    8.100000000000000    2.700000000000000   -0.000595079152845   -0.000015928129869   -0.000357267592335 
40    5.400000000000000    8.100000000000000    8.100000000000000    0.001963788876310    0.001332227489911    0.020919866859913 
41    6.750000000000000    1.350000000000000    1.350000000000000   -0.000359424564522    0.000204303738428   -0.013767817057669 
42    6.750000000000000    1.350000000000000    6.750000000000000   -0.003294498426840    0.003408388001844    0.002803812269121 
43    6.750000000000000    4.050000000000000    4.050000000000000   -0.001352960709482   -0.000727769453079    0.009898687712848 
44    6.750000000000000    4.050000000000000    9.449999999999999   -0.002635738346726    0.012479565106332    0.273255288600922 
45    6.750000000000000    6.750000000000000    1.350000000000000    0.004783036187291   -0.001264134771191   -0.025304712355137 
46    6.750000000000000    6.750000000000000    6.750000000000000   -0.000087016640464   -0.000036974091927    0.014167776331306 
47    6.750000000000000    9.449999999999999    4.050000000000000   -0.000104476101114    0.000190857768757    0.015648702159524 
48    6.750000000000000    9.449999999999999    9.449999999999999    0.007590163964778   -0.002044705674052    0.259720653295517 
49    8.100000000000000    0.000000000000000    2.700000000000000    0.000659366196487   -0.001481059822254   -0.003188283648342 
50    8.100000000000000    0.000000000000000    8.100000000000000    0.002511978847906    0.002299210289493    0.020014418289065 
51    8.100000000000000    2.700000000000000    0.000000000000000   -0.012969573028386    0.015623036772013   -0.276276558637619 
52    8.100000000000000    2.700000000000000    5.400000000000000    0.001646328717470   -0.001154987257905   -0.012408498674631 
53    8.100000000000000    5.400000000000000    2.700000000000000    0.001157750957645    0.000765342789236   -0.004539265763015 
54    8.100000000000000    5.400000000000000    8.100000000000000    0.002186883473769    0.001189950387925    0.011571886949241 
55    8.100000000000000    8.100000000000000    0.000000000000000   -0.006996441632509    0.011323880404234   -0.264918267726898 
56    8.100000000000000    8.100000000000000    5.400000000000000   -0.000201605740585   -0.000723109289538   -0.014417881146073 
57    9.449999999999999    1.350000000000000    4.050000000000000   -0.000024678633054    0.001090658362955    0.015346255153418 
58    9.449999999999999    1.350000000000000    9.449999999999999   -0.007817696779966    0.016183374449611    0.252218633890152 
59    9.449999999999999    4.050000000000000    1.350000000000000    0.001202221843414   -0.002774818567559   -0.016406489536166 
60    9.449999999999999    4.050000000000000    6.750000000000000    0.001812707982026   -0.002620398998260    0.004280610475689 
61    9.449999999999999    6.750000000000000    4.050000000000000    0.001229293877259   -0.001253810594790    0.014074089936912 
62    9.449999999999999    6.750000000000000    9.449999999999999    0.002907585585490    0.005582377314568    0.272396326065063 
63    9.449999999999999    9.449999999999999    1.350000000000000    0.009578531607985    0.004197136498988   -0.041839681565762 
64    9.449999999999999    9.449999999999999    6.750000000000000   -0.001828324282542    0.000356325646862    0.006112101022154 
