ITEM: TIMESTEP
0
ITEM: NUMBER OF ATOMS
64
ITEM: BOX BOUNDS xy xz yz pp pp pp
0.0000000000000000e+00 1.0800000000000001e+01 0.0000000000000000e+00
0.0000000000000000e+00 1.0800000000000001e+01 0.0000000000000000e+00
0.0000000000000000e+00 1.0800000000000001e+01 0.0000000000000000e+00
ITEM: ATOMS id xu yu zu fx fy fz 
1    0.040000000000000    0.000000000000000    0.000000000000000   -0.188689947128296   -0.262970030307770   -0.271017640829086 
2    0.000000000000000    0.000000000000000    5.400000000000000    0.001263831509277   -0.001905703567900   -0.023287281394005 
3    0.000000000000000    2.740000000000000    2.700000000000000    0.004653631243855   -0.436576545238495   -0.005792405921966 
4    0.000000000000000    2.700000000000000    8.100000000000000    0.000563441019040   -0.000430213985965    0.004399940371513 
5    0.000000000000000    5.400000000000000    0.000000000000000    0.014992794953287    0.006719837896526   -0.268856257200241 
6    0.000000000000000    5.400000000000000    5.400000000000000    0.004914282355458    0.004267552401870   -0.013864904642105 
7    0.000000000000000    8.100000000000000    2.700000000000000   -0.000781639595516    0.002350586233661   -0.007885731756687 
8    0.000000000000000    8.100000000000000    8.100000000000000    0.002035642741248    0.000876322796103    0.018676314502954 
9    1.350000000000000    1.350000000000000    1.350000000000000   -0.011256550438702    0.074609369039536    0.014107082039118 
10    1.350000000000000    1.350000000000000    6.750000000000000   -0.000774295360316   -0.001606805599295    0.003521902253851 
11    1.350000000000000    4.050000000000000    4.050000000000000    0.098245240747929    0.108352817595005    0.129579558968544 
12    1.350000000000000    4.050000000000000    9.449999999999999   -0.000369771121768    0.000117649091408    0.265672057867050 
13    1.350000000000000    6.750000000000000    1.350000000000000   -0.001029503997415   -0.001128392061219   -0.004954180214554 
14    1.350000000000000    6.750000000000000    6.750000000000000   -0.000998496892862    0.000725317571778    0.003009136533365 
15    1.350000000000000    9.449999999999999    4.050000000000000   -0.000445458106697    0.001009123981930    0.014205591753125 
16    1.350000000000000    9.449999999999999    9.449999999999999   -0.005333477631211    0.004913559649140    0.255330473184586 
17    2.700000000000000    0.000000000000000    2.700000000000000    0.003456681501120   -0.002636639866978   -0.002468559192494 
18    2.700000000000000    0.000000000000000    8.100000000000000    0.000125697100884   -0.001795177697204    0.004205461591482 
19    2.700000000000000    2.700000000000000    0.000000000000000    0.012934526428580    0.014335033483803   -0.250463038682938 
20    2.700000000000000    2.700000000000000    5.400000000000000   -0.003360600676388    0.002433471847326   -0.016286160796881 
21    2.700000000000000    5.400000000000000    2.700000000000000   -0.003898691153154   -0.000004380789051   -0.007185231894255 
22    2.700000000000000    5.400000000000000    8.100000000000000    0.001041096402332    0.003844117978588    0.018310900777578 
23    2.700000000000000    8.100000000000000    0.000000000000000   -0.013803724199533    0.026192015036941   -0.263398736715317 
24    2.700000000000000    8.100000000000000    5.400000000000000   -0.001968110678717    0.003121347865090   -0.013376077637076 
25    4.050000000000000    1.350000000000000    4.050000000000000    0.001099396613427   -0.001906575635076    0.012740800157189 
26    4.050000000000000    1.350000000000000    9.449999999999999   -0.003146922448650    0.015856755897403    0.262335181236267 
27    4.050000000000000    4.050000000000000    1.350000000000000    0.000628649431746   -0.001255401642993   -0.007491261698306 
28    4.050000000000000    4.050000000000000    6.750000000000000   -0.001332663116045   -0.001670450787060    0.003904865356162 
29    4.050000000000000    6.750000000000000    4.050000000000000    0.000596815603785    0.001328360754997    0.013845952227712 
30    4.050000000000000    6.750000000000000    9.449999999999999   -0.003540593432263   -0.001555393682793    0.261556625366211 
31    4.050000000000000    9.449999999999999    1.350000000000000   -0.000248420663411    0.004835083149374   -0.014292055740952 
32    4.050000000000000    9.449999999999999    6.750000000000000   -0.001888580853119   -0.000510925776325    0.002996877534315 
33    5.400000000000000    0.000000000000000    0.000000000000000    0.000122764147818   -0.005912136286497   -0.255429148674011 
34    5.400000000000000    0.000000000000000    5.400000000000000    0.000486853037728    0.005149242933840   -0.014231678098440 
35    5.400000000000000    2.700000000000000    2.700000000000000   -0.005059191957116    0.002775940578431   -0.007029714062810 
36    5.400000000000000    2.700000000000000    8.100000000000000   -0.003221380524337   -0.002902737120166    0.015923792496324 
37    5.400000000000000    5.400000000000000    0.000000000000000   -0.001606827718206    0.008138253353536   -0.259041547775269 
38    5.400000000000000    5.400000000000000    5.400000000000000   -0.001152687938884   -0.000184067161172   -0.015094522386789 
39    5.400000000000000    8.100000000000000    2.700000000000000   -0.001643888768740    0.001435945043340   -0.009180029854178 
40    5.400000000000000    8.100000000000000    8.100000000000000   -0.002050665672868   -0.000822856964078    0.012363139539957 
41    6.750000000000000    1.350000000000000    1.350000000000000    0.000951078371145    0.000581463798881   -0.006402377970517 
42    6.750000000000000    1.350000000000000    6.750000000000000    0.003558011958376    0.000138831033837    0.000504374562297 
43    6.750000000000000    4.050000000000000    4.050000000000000    0.003628975478932   -0.002227458404377    0.017017031088471 
44    6.750000000000000    4.050000000000000    9.449999999999999    0.010564158670604   -0.001014463719912    0.262307494878769 
45    6.750000000000000    6.750000000000000    1.350000000000000    0.001903501572087   -0.002327685710043   -0.013024611398578 
46    6.750000000000000    6.750000000000000    6.750000000000000    0.002792832674459   -0.001661193789914    0.008220918476582 
47    6.750000000000000    9.449999999999999    4.050000000000000    0.000795644300524    0.001377831562422    0.014821661636233 
48    6.750000000000000    9.449999999999999    9.449999999999999   -0.003584785852581    0.015991715714335    0.274452567100525 
49    8.100000000000000    0.000000000000000    2.700000000000000    0.006150804925710   -0.002060864120722   -0.008022752590477 
50    8.100000000000000    0.000000000000000    8.100000000000000    0.001360528636724   -0.002291292417794    0.018299700692296 
51    8.100000000000000    2.700000000000000    0.000000000000000   -0.004442814737558    0.024040685966611   -0.279852122068405 
52    8.100000000000000    2.700000000000000    5.400000000000000   -0.001389598823152   -0.004105212166905   -0.017449418082833 
53    8.100000000000000    5.400000000000000    2.700000000000000    0.000161582152941    0.003800338599831   -0.009503692388535 
54    8.100000000000000    5.400000000000000    8.100000000000000   -0.002654134528711    0.001228765002452    0.005013265181333 
55    8.100000000000000    8.100000000000000    0.000000000000000    0.005427277181298    0.023201098665595   -0.265564650297165 
56    8.100000000000000    8.100000000000000    5.400000000000000    0.002300960710272   -0.001497504883446   -0.016172794625163 
57    9.449999999999999    1.350000000000000    4.050000000000000    0.089625872671604    0.090719245374203   -0.058642003685236 
58    9.449999999999999    1.350000000000000    9.449999999999999   -0.005602526012808   -0.004237595014274    0.255497485399246 
59    9.449999999999999    4.050000000000000    1.350000000000000   -0.041365601122379    0.060887612402439   -0.096012555062771 
60    9.449999999999999    4.050000000000000    6.750000000000000   -0.002097045769915   -0.000701888289768    0.004393376410007 
61    9.449999999999999    6.750000000000000    4.050000000000000   -0.002957784570754    0.002773201093078    0.020743222907186 
62    9.449999999999999    6.750000000000000    9.449999999999999    0.008170940913260    0.004103165585548    0.258828669786453 
63    9.449999999999999    9.449999999999999    1.350000000000000    0.034715291112661    0.022169983014464   -0.107065878808498 
64    9.449999999999999    9.449999999999999    6.750000000000000    0.002998666372150    0.002850784221664    0.007394534535706 
