ITEM: TIMESTEP
0
ITEM: NUMBER OF ATOMS
64
ITEM: BOX BOUNDS xy xz yz pp pp pp
0.0000000000000000e+00 1.0800000000000001e+01 0.0000000000000000e+00
0.0000000000000000e+00 1.0800000000000001e+01 0.0000000000000000e+00
0.0000000000000000e+00 1.0800000000000001e+01 0.0000000000000000e+00
ITEM: ATOMS id xu yu zu fx fy fz 
1    0.040000000000000    0.000000000000000    0.000000000000000   -0.073508903384209   -0.167925566434860   -0.179460197687149 
2    0.000000000000000    0.000000000000000    5.400000000000000   -0.001720380387269    0.001803950406611   -0.016389459371567 
3    0.000000000000000    2.700000000000000    2.700000000000000   -0.108135938644409    0.093906253576279    0.091788992285728 
4    0.000000000000000    2.700000000000000    8.100000000000000    0.000187201425433    0.002837700070813    0.014731181785464 
5    0.000000000000000    5.400000000000000    0.000000000000000    0.004807430319488   -0.004218957386911   -0.268339425325394 
6    0.000000000000000    5.400000000000000    5.400000000000000    0.001281116739847    0.000210398517083   -0.011642297729850 
7    0.000000000000000    8.100000000000000    2.700000000000000   -0.000886365131009   -0.000009136899280   -0.008834584616125 
8    0.000000000000000    8.100000000000000    8.100000000000000    0.002268595853820   -0.001004415680654    0.011395260691643 
9    1.350000000000000    1.390000000000000    1.350000000000000    0.031859904527664   -0.228467255830765   -0.031824026256800 
10    1.350000000000000    1.350000000000000    6.750000000000000    0.000347232358763   -0.000029741468097    0.004143372178078 
11    1.350000000000000    4.050000000000000    4.050000000000000   -0.004936513490975    0.003723227651790    0.015597130171955 
12    1.350000000000000    4.050000000000000    9.449999999999999    0.005421366542578    0.001366851385683    0.256227731704712 
13    1.350000000000000    6.750000000000000    1.350000000000000   -0.001655699918047   -0.000346788321622   -0.012527915649116 
14    1.350000000000000    6.750000000000000    6.750000000000000    0.000222995382501    0.000449433253380    0.004678087309003 
15    1.350000000000000    9.449999999999999    4.050000000000000   -0.000616818200797    0.005770649295300    0.006537739187479 
16    1.350000000000000    9.449999999999999    9.449999999999999   -0.003985528834164   -0.010870855301619    0.276723563671112 
17    2.700000000000000    0.000000000000000    2.700000000000000   -0.070051327347755    0.080297455191612   -0.075882367789745 
18    2.700000000000000    0.000000000000000    8.100000000000000   -0.002436543582007    0.000993884517811    0.012407515197992 
19    2.700000000000000    2.700000000000000    0.000000000000000    0.121568880975246    0.098143287003040   -0.366703182458878 
20    2.700000000000000    2.700000000000000    5.400000000000000   -0.000503016402945   -0.002669910667464   -0.009619708172977 
21    2.700000000000000    5.400000000000000    2.700000000000000    0.001357642351650   -0.001016854424961   -0.015025672502816 
22    2.700000000000000    5.400000000000000    8.100000000000000   -0.000492940831464    0.001516616204754    0.007539194077253 
23    2.700000000000000    8.100000000000000    0.000000000000000   -0.014661759138107    0.013514954596758   -0.268563002347946 
24    2.700000000000000    8.100000000000000    5.400000000000000   -0.000178295333171    0.005355832632631   -0.015581795014441 
25    4.050000000000000    1.350000000000000    4.050000000000000   -0.000355322961695   -0.001921940362081    0.012653025798500 
26    4.050000000000000    1.350000000000000    9.449999999999999    0.007475520949811    0.005907462444156    0.262655705213547 
27    4.050000000000000    4.050000000000000    1.350000000000000   -0.003919757902622    0.000239597036853   -0.017958628013730 
28    4.050000000000000    4.050000000000000    6.750000000000000   -0.002556407824159   -0.001051421277225    0.004948533140123 
29    4.050000000000000    6.750000000000000    4.050000000000000    0.003328593913466   -0.005392267834395    0.013419198803604 
30    4.050000000000000    6.750000000000000    9.449999999999999    0.002343104919419    0.001005130703561    0.266932576894760 
31    4.050000000000000    9.449999999999999    1.350000000000000   -0.002629691269249    0.000436566362623   -0.007637729868293 
32    4.050000000000000    9.449999999999999    6.750000000000000    0.000162094875122   -0.000193271494936    0.001898229820654 
33    5.400000000000000    0.000000000000000    0.000000000000000    0.004202629439533   -0.007607069332153   -0.263592123985291 
34    5.400000000000000    0.000000000000000    5.400000000000000   -0.002438937313855    0.002837328007445   -0.014263076707721 
35    5.400000000000000    2.700000000000000    2.700000000000000   -0.003574227681383   -0.000800119480118   -0.005922845564783 
36    5.400000000000000    2.700000000000000    8.100000000000000   -0.001354235573672   -0.001109966309741    0.009976157918572 
37    5.400000000000000    5.400000000000000    0.000000000000000   -0.001159741193987    0.004916696809232   -0.265692770481110 
38    5.400000000000000    5.400000000000000    5.400000000000000    0.000368162116501   -0.001532030524686   -0.012353335507214 
39    5.400000000000000    8.100000000000000    2.700000000000000    0.000972459383775   -0.000596936384682   -0.007362878881395 
40    5.400000000000000    8.100000000000000    8.100000000000000   -0.000609678099863   -0.003632180625573    0.015707030892372 
41    6.750000000000000    1.350000000000000    1.350000000000000    0.000384183746064   -0.005155509337783   -0.010742680169642 
42    6.750000000000000    1.350000000000000    6.750000000000000   -0.001180415041745    0.000280402309727   -0.000815512030385 
43    6.750000000000000    4.050000000000000    4.050000000000000   -0.001608459977433   -0.000739824608900    0.012532195076346 
44    6.750000000000000    4.050000000000000    9.449999999999999    0.005375595763326    0.000389602442738    0.264115899801254 
45    6.750000000000000    6.750000000000000    1.350000000000000    0.001532191177830   -0.002228484023362   -0.013314609415829 
46    6.750000000000000    6.750000000000000    6.750000000000000   -0.000427892140578    0.001270963228308    0.003853824920952 
47    6.750000000000000    9.449999999999999    4.050000000000000   -0.000019814340703    0.001247770152986    0.014286640100181 
48    6.750000000000000    9.449999999999999    9.449999999999999    0.006246198434383    0.009699428454041    0.250986605882645 
49    8.100000000000000    0.000000000000000    2.700000000000000    0.005138890817761   -0.003393656341359   -0.009044921956956 
50    8.100000000000000    0.000000000000000    8.100000000000000    0.000968932930846    0.001326175406575    0.008646932430565 
51    8.100000000000000    2.700000000000000    0.000000000000000   -0.018132699653506    0.012387009337544   -0.261132985353470 
52    8.100000000000000    2.700000000000000    5.400000000000000   -0.000168166632648    0.001625095610507   -0.014708165079355 
53    8.100000000000000    5.400000000000000    2.700000000000000   -0.002600577194244   -0.000595683814026   -0.001342899980955 
54    8.100000000000000    5.400000000000000    8.100000000000000    0.001361487782560    0.001453813747503    0.012582901865244 
55    8.100000000000000    8.100000000000000    0.000000000000000    0.003186398185790    0.012178590521216   -0.255702674388885 
56    8.100000000000000    8.100000000000000    5.400000000000000   -0.000289723073365   -0.001937932334840   -0.015000215731561 
57    9.449999999999999    1.350000000000000    4.050000000000000    0.000422495126259   -0.002465309109539    0.017027109861374 
58    9.449999999999999    1.350000000000000    9.449999999999999   -0.008765135891736    0.013336556963623    0.265591740608215 
59    9.449999999999999    4.050000000000000    1.350000000000000   -0.004306668881327    0.002052131574601   -0.031630899757147 
60    9.449999999999999    4.050000000000000    6.750000000000000   -0.004253104794770   -0.001396858016960    0.003342866199091 
61    9.449999999999999    6.750000000000000    4.050000000000000    0.002327480819076   -0.002431527245790    0.013442932628095 
62    9.449999999999999    6.750000000000000    9.449999999999999    0.007318439893425   -0.003650191007182    0.271157473325729 
63    9.449999999999999    9.449999999999999    1.350000000000000    0.030994074419141    0.046445548534393   -0.149750679731369 
64    9.449999999999999    9.449999999999999    6.750000000000000   -0.000129097024910    0.002071233466268   -0.000914086354896 
