ITEM: TIMESTEP
0
ITEM: NUMBER OF ATOMS
64
ITEM: BOX BOUNDS xy xz yz pp pp pp
0.0000000000000000e+00 1.0800000000000001e+01 0.0000000000000000e+00
0.0000000000000000e+00 1.0800000000000001e+01 0.0000000000000000e+00
0.0000000000000000e+00 1.0800000000000001e+01 0.0000000000000000e+00
ITEM: ATOMS id xu yu zu fx fy fz 
1    0.040000000000000    0.000000000000000    0.000000000000000   -0.096292786300182   -0.148783266544342   -0.180570721626282 
2    0.000000000000000    0.000000000000000    5.400000000000000   -0.001307621831074    0.000511768797878   -0.016925187781453 
3    0.000000000000000    2.700000000000000    2.700000000000000    0.070601046085358   -0.076025411486626   -0.103908933699131 
4    0.000000000000000    2.700000000000000    8.100000000000000   -0.001727424911223   -0.002102163620293    0.014902761206031 
5    0.000000000000000    5.400000000000000    0.000000000000000   -0.009675744920969    0.001726359361783   -0.272729575634003 
6    0.000000000000000    5.400000000000000    5.400000000000000    0.001426378148608   -0.002762053627521   -0.014294615946710 
7    0.000000000000000    8.100000000000000    2.700000000000000    0.000192751671420    0.004208138212562   -0.008790922351182 
8    0.000000000000000    8.100000000000000    8.100000000000000   -0.000239933244302   -0.001317700720392    0.007761275861412 
9    1.390000000000000    1.350000000000000    1.350000000000000   -0.242034539580345    0.073616057634354   -0.014797600917518 
10    1.350000000000000    1.350000000000000    6.750000000000000    0.000961295561865   -0.001598150818609    0.002416382543743 
11    1.350000000000000    4.050000000000000    4.050000000000000   -0.003876141272485   -0.000526254705619    0.011015490628779 
12    1.350000000000000    4.050000000000000    9.449999999999999    0.010142136365175   -0.008412295952439    0.259610593318939 
13    1.350000000000000    6.750000000000000    1.350000000000000   -0.000707805214915   -0.001660324749537   -0.019055791199207 
14    1.350000000000000    6.750000000000000    6.750000000000000   -0.000188220190466    0.001165409223177    0.002374131465331 
15    1.350000000000000    9.449999999999999    4.050000000000000   -0.001096609863453    0.001792559982277    0.016475889831781 
16    1.350000000000000    9.449999999999999    9.449999999999999    0.009909450076520   -0.007562916260213    0.280132472515106 
17    2.700000000000000    0.000000000000000    2.700000000000000    0.098894782364368   -0.109666369855404    0.092510439455509 
18    2.700000000000000    0.000000000000000    8.100000000000000   -0.001302064745687    0.001028067898005    0.005782391875982 
19    2.700000000000000    2.700000000000000    0.000000000000000    0.081782341003418    0.130738735198975   -0.344878613948822 
20    2.700000000000000    2.700000000000000    5.400000000000000    0.000638754572719    0.003047594334930   -0.010663868859410 
21    2.700000000000000    5.400000000000000    2.700000000000000   -0.003294722875580   -0.003279215656221   -0.002167185535654 
22    2.700000000000000    5.400000000000000    8.100000000000000   -0.001044128555804   -0.000585993111599    0.014944357797503 
23    2.700000000000000    8.100000000000000    0.000000000000000   -0.015113926492631    0.009864074178040   -0.261778533458710 
24    2.700000000000000    8.100000000000000    5.400000000000000   -0.002123551908880    0.002715453272685   -0.012498256750405 
25    4.050000000000000    1.350000000000000    4.050000000000000   -0.001797044882551    0.001288410858251    0.019208097830415 
26    4.050000000000000    1.350000000000000    9.449999999999999   -0.004696426447481    0.000000555014481    0.248475357890129 
27    4.050000000000000    4.050000000000000    1.350000000000000    0.000804426788818    0.003349217586219   -0.022868545725942 
28    4.050000000000000    4.050000000000000    6.750000000000000   -0.000886646623258   -0.001164227374829    0.001201557111926 
29    4.050000000000000    6.750000000000000    4.050000000000000   -0.000036579258449   -0.001728805946186    0.014320981688797 
30    4.050000000000000    6.750000000000000    9.449999999999999   -0.002425738610327   -0.006824654061347    0.266054123640060 
31    4.050000000000000    9.449999999999999    1.350000000000000    0.000627330504358   -0.009876130148768   -0.021408064290881 
32    4.050000000000000    9.449999999999999    6.750000000000000   -0.003748451359570   -0.000761180417612    0.002372684655711 
33    5.400000000000000    0.000000000000000    0.000000000000000    0.017967196181417    0.003834015689790   -0.264542549848557 
34    5.400000000000000    0.000000000000000    5.400000000000000    0.002920853439718    0.004467881284654   -0.007938006892800 
35    5.400000000000000    2.700000000000000    2.700000000000000   -0.001341114751995    0.000656715652440   -0.005950438790023 
36    5.400000000000000    2.700000000000000    8.100000000000000    0.000888181559276    0.002532021841034    0.008378963917494 
37    5.400000000000000    5.400000000000000    0.000000000000000   -0.011209314689040    0.002147379796952   -0.268793463706970 
38    5.400000000000000    5.400000000000000    5.400000000000000    0.000284453388304    0.002094767987728   -0.012349001131952 
39    5.400000000000000    8.100000000000000    2.700000000000000    0.002616635989398   -0.004970720037818   -0.003992291167378 
40    5.400000000000000    8.100000000000000    8.100000000000000   -0.003939466085285   -0.005437260493636    0.016313362866640 
41    6.750000000000000    1.350000000000000    1.350000000000000   -0.001700685941614    0.002141387900338   -0.010498818010092 
42    6.750000000000000    1.350000000000000    6.750000000000000    0.001549229025841   -0.003024527803063    0.003548562293872 
43    6.750000000000000    4.050000000000000    4.050000000000000   -0.002669609850273   -0.000138296294608    0.010626908391714 
44    6.750000000000000    4.050000000000000    9.449999999999999    0.009225857444108    0.002321153413504    0.270755559206009 
45    6.750000000000000    6.750000000000000    1.350000000000000    0.003859469899908   -0.000243024987867   -0.011667591519654 
46    6.750000000000000    6.750000000000000    6.750000000000000    0.000183264230145    0.002684237668291    0.007783619686961 
47    6.750000000000000    9.449999999999999    4.050000000000000    0.001150295720436   -0.000883201486431    0.016649236902595 
48    6.750000000000000    9.449999999999999    9.449999999999999    0.006255310494453   -0.013995050452650    0.263101398944855 
49    8.100000000000000    0.000000000000000    2.700000000000000    0.001308226375841    0.000912548683118   -0.001957397907972 
50    8.100000000000000    0.000000000000000    8.100000000000000    0.000538373598829   -0.001858817529865    0.003812262555584 
51    8.100000000000000    2.700000000000000    0.000000000000000   -0.017391884699464    0.015218449756503   -0.276708394289017 
52    8.100000000000000    2.700000000000000    5.400000000000000    0.000268422649242   -0.000057172273955   -0.018493298441172 
53    8.100000000000000    5.400000000000000    2.700000000000000    0.000935061427299   -0.002937654498965   -0.001011472195387 
54    8.100000000000000    5.400000000000000    8.100000000000000    0.003061941126361    0.001082464936189    0.005998000502586 
55    8.100000000000000    8.100000000000000    0.000000000000000    0.000486855540657    0.018855020403862   -0.250724434852600 
56    8.100000000000000    8.100000000000000    5.400000000000000   -0.000338278041454    0.000796105305199   -0.013501326553524 
57    9.449999999999999    1.350000000000000    4.050000000000000    0.004418891854584    0.000787310069427    0.009229401126504 
58    9.449999999999999    1.350000000000000    9.449999999999999   -0.003399182809517    0.001778702135198    0.254610776901245 
59    9.449999999999999    4.050000000000000    1.350000000000000    0.000861588050611   -0.005192591808736   -0.015850096940994 
60    9.449999999999999    4.050000000000000    6.750000000000000    0.000070251480793    0.001180405612104    0.001283163321204 
61    9.449999999999999    6.750000000000000    4.050000000000000    0.001386221149005   -0.000624836189672    0.012931937351823 
62    9.449999999999999    6.750000000000000    9.449999999999999    0.001108123571612    0.009912157431245    0.251448333263397 
63    9.449999999999999    9.449999999999999    1.350000000000000    0.060240443795919    0.024364190176129   -0.107263781130314 
64    9.449999999999999    9.449999999999999    6.750000000000000   -0.000386469182558    0.001289752777666    0.009305027313530 
