ITEM: TIMESTEP
0
ITEM: NUMBER OF ATOMS
64
ITEM: BOX BOUNDS xy xz yz pp pp pp
0.0000000000000000e+00 1.0800000000000001e+01 0.0000000000000000e+00
0.0000000000000000e+00 1.0800000000000001e+01 0.0000000000000000e+00
0.0000000000000000e+00 1.0800000000000001e+01 0.0000000000000000e+00
ITEM: ATOMS id xu yu zu fx fy fz 
1   -0.039999999999999    0.000000000000000    0.000000000000000    0.185720518231392    0.283480167388916   -0.273553609848022 
2    0.000000000000000    0.000000000000000    5.400000000000000    0.006048271898180    0.002114246599376   -0.020607629790902 
3    0.000000000000000    2.740000000000000    2.700000000000000    0.019976055249572   -0.457881867885590   -0.021871969103813 
4    0.000000000000000    2.700000000000000    8.100000000000000   -0.002415166003630   -0.001151988981292    0.010453522205353 
5    0.000000000000000    5.400000000000000    0.000000000000000    0.012397865764797    0.007414015475661   -0.275605618953705 
6    0.000000000000000    5.400000000000000    5.400000000000000    0.002848926233128    0.002620760584250   -0.018329296261072 
7    0.000000000000000    8.100000000000000    2.700000000000000    0.001687528565526    0.000158784998348    0.000023773540306 
8    0.000000000000000    8.100000000000000    8.100000000000000    0.001050461200066    0.001216547680087    0.010612363927066 
9    1.350000000000000    1.350000000000000    1.350000000000000   -0.066194467246532    0.001187785645016   -0.058324035257101 
10    1.350000000000000    1.350000000000000    6.750000000000000   -0.001339614274912    0.000616771751083    0.006604390684515 
11    1.350000000000000    4.050000000000000    4.050000000000000    0.109197877347469    0.109574377536774    0.127870574593544 
12    1.350000000000000    4.050000000000000    9.449999999999999    0.009906171821058    0.002470835344866    0.269984871149063 
13    1.350000000000000    6.750000000000000    1.350000000000000   -0.003033021697775   -0.005947007331997   -0.022198744118214 
14    1.350000000000000    6.750000000000000    6.750000000000000    0.001635645166971   -0.000759419519454    0.008476657792926 
15    1.350000000000000    9.449999999999999    4.050000000000000   -0.003956533502787   -0.000544949201867    0.022904129698873 
16    1.350000000000000    9.449999999999999    9.449999999999999   -0.004493902903050   -0.006066767033190    0.260431498289108 
17    2.700000000000000    0.000000000000000    2.700000000000000   -0.005536606069654    0.003862865967676   -0.003432882251218 
18    2.700000000000000    0.000000000000000    8.100000000000000   -0.001010413398035    0.001553516718559    0.019037071615458 
19    2.700000000000000    2.700000000000000    0.000000000000000   -0.017206957563758   -0.005291073583066   -0.265983521938324 
20    2.700000000000000    2.700000000000000    5.400000000000000    0.000816438870970    0.000389621040085   -0.017033020034432 
21    2.700000000000000    5.400000000000000    2.700000000000000   -0.002876413986087   -0.000746319885366   -0.007203645538539 
22    2.700000000000000    5.400000000000000    8.100000000000000    0.001503282226622    0.001204517669976    0.007313559297472 
23    2.700000000000000    8.100000000000000    0.000000000000000    0.001706509501673   -0.012670254334807   -0.257434874773026 
24    2.700000000000000    8.100000000000000    5.400000000000000   -0.000229016455705    0.002092376118526   -0.014406032860279 
25    4.050000000000000    1.350000000000000    4.050000000000000   -0.000051720649935   -0.003169166389853    0.015057080425322 
26    4.050000000000000    1.350000000000000    9.449999999999999    0.011013087816536   -0.000100245728390    0.271311342716217 
27    4.050000000000000    4.050000000000000    1.350000000000000    0.001531665562652   -0.000313212221954   -0.015892822295427 
28    4.050000000000000    4.050000000000000    6.750000000000000   -0.002634652890265   -0.002202768810093    0.000750595179852 
29    4.050000000000000    6.750000000000000    4.050000000000000    0.000420300028054    0.003159590996802    0.013455028645694 
30    4.050000000000000    6.750000000000000    9.449999999999999   -0.008740778081119    0.001552019384690    0.251065760850906 
31    4.050000000000000    9.449999999999999    1.350000000000000    0.000581116706599    0.003774760989472   -0.014158017933369 
32    4.050000000000000    9.449999999999999    6.750000000000000   -0.000322469451930    0.000642323400825    0.004434520844370 
33    5.400000000000000    0.000000000000000    0.000000000000000    0.002831017598510   -0.008319038897753   -0.245759904384613 
34    5.400000000000000    0.000000000000000    5.400000000000000   -0.001517197932117    0.002332013798878   -0.012744468636811 
35    5.400000000000000    2.700000000000000    2.700000000000000   -0.003215299919248   -0.003980315290391   -0.004567183088511 
36    5.400000000000000    2.700000000000000    8.100000000000000   -0.000033002488635   -0.001396861276589    0.006503322627395 
37    5.400000000000000    5.400000000000000    0.000000000000000   -0.004129105247557   -0.015898585319519   -0.257821530103683 
38    5.400000000000000    5.400000000000000    5.400000000000000   -0.000636661716271    0.000054789328715   -0.014370269142091 
39    5.400000000000000    8.100000000000000    2.700000000000000   -0.000277330487734   -0.000466568337288   -0.001913294079714 
40    5.400000000000000    8.100000000000000    8.100000000000000    0.002364732790738    0.000757687143050    0.011764903552830 
41    6.750000000000000    1.350000000000000    1.350000000000000    0.001390210236423    0.001596014015377   -0.026937155053020 
42    6.750000000000000    1.350000000000000    6.750000000000000    0.001489478396252    0.001971079036593    0.001597238355316 
43    6.750000000000000    4.050000000000000    4.050000000000000   -0.001801691018045   -0.001622357056476    0.021300638094544 
44    6.750000000000000    4.050000000000000    9.449999999999999   -0.002153676701710    0.004040155094117    0.255802422761917 
45    6.750000000000000    6.750000000000000    1.350000000000000   -0.001050505554304    0.003083193441853   -0.011088865809143 
46    6.750000000000000    6.750000000000000    6.750000000000000   -0.001219434780069   -0.000990908127278    0.003571876790375 
47    6.750000000000000    9.449999999999999    4.050000000000000   -0.001682445988990   -0.001048591220751    0.013757397420704 
48    6.750000000000000    9.449999999999999    9.449999999999999    0.000140601259773   -0.000710298016202    0.251535832881927 
49    8.100000000000000    0.000000000000000    2.700000000000000   -0.001175878918730    0.004967350047082   -0.005214951001108 
50    8.100000000000000    0.000000000000000    8.100000000000000   -0.001419228734449   -0.003130075056106    0.009608658030629 
51    8.100000000000000    2.700000000000000    0.000000000000000   -0.010263063944876   -0.010917504318058   -0.255132257938385 
52    8.100000000000000    2.700000000000000    5.400000000000000   -0.001095067709684   -0.004197953268886   -0.017009502276778 
53    8.100000000000000    5.400000000000000    2.700000000000000    0.000060742186179    0.002286405302584   -0.006269741803408 
54    8.100000000000000    5.400000000000000    8.100000000000000   -0.001042505959049   -0.001318852067925    0.014118373394012 
55    8.100000000000000    8.100000000000000    0.000000000000000   -0.016004659235477   -0.004185051657259   -0.255038917064667 
56    8.100000000000000    8.100000000000000    5.400000000000000    0.003549592569470    0.000344001979101   -0.014681864529848 
57    9.449999999999999    1.350000000000000    4.050000000000000    0.087400309741497    0.112168684601784   -0.071586832404137 
58    9.449999999999999    1.350000000000000    9.449999999999999    0.011309732683003    0.009182750247419    0.259149521589279 
59    9.449999999999999    4.050000000000000    1.350000000000000   -0.028198121115565    0.040636353194714   -0.079644396901131 
60    9.449999999999999    4.050000000000000    6.750000000000000   -0.003955377731472   -0.002214916516095    0.004759709816426 
61    9.449999999999999    6.750000000000000    4.050000000000000    0.000202582974453   -0.000039069127524    0.016036566346884 
62    9.449999999999999    6.750000000000000    9.449999999999999    0.001454166485928    0.014758242294192    0.260349214076996 
63    9.449999999999999    9.449999999999999    1.350000000000000   -0.008238052949309   -0.012819659896195    0.001518406672403 
64    9.449999999999999    9.449999999999999    6.750000000000000    0.000118064810522    0.001287327264436    0.005503490101546 
