ITEM: TIMESTEP
0
ITEM: NUMBER OF ATOMS
64
ITEM: BOX BOUNDS xy xz yz pp pp pp
0.0000000000000000e+00 1.0800000000000001e+01 0.0000000000000000e+00
0.0000000000000000e+00 1.0800000000000001e+01 0.0000000000000000e+00
0.0000000000000000e+00 1.0800000000000001e+01 0.0000000000000000e+00
ITEM: ATOMS id xu yu zu fx fy fz 
1    0.040000000000000    0.000000000000000    0.000000000000000   -0.171618968248367   -0.267565935850143   -0.265701472759247 
2    0.000000000000000    0.000000000000000    5.400000000000000   -0.004308549687266   -0.000211525708437   -0.016198072582483 
3    0.000000000000000    2.700000000000000    2.700000000000000    0.003959632944316    0.000593345961533   -0.005696884822100 
4    0.000000000000000    2.700000000000000    8.100000000000000   -0.000001573347731    0.003072501625866    0.015480251051486 
5    0.000000000000000    5.400000000000000    0.000000000000000    0.001308845123276    0.004049199633300   -0.268164426088333 
6    0.000000000000000    5.400000000000000    5.400000000000000    0.001203168649226    0.004111207090318   -0.011621547862887 
7    0.000000000000000    8.100000000000000    2.700000000000000    0.001007046084851    0.004792588762939   -0.011556017212570 
8    0.000000000000000    8.100000000000000    8.100000000000000   -0.001242999336682   -0.001605867641047    0.014627741649747 
9    1.350000000000000    1.350000000000000    1.350000000000000    0.048810124397278    0.001227988628671    0.022803135216236 
10    1.350000000000000    1.350000000000000    6.750000000000000    0.001416238024831   -0.003023569472134    0.005983179900795 
11    1.350000000000000    4.050000000000000    4.050000000000000   -0.002906380919740    0.001761971041560    0.011244180612266 
12    1.350000000000000    4.050000000000000    9.449999999999999   -0.003304656129330   -0.005605225916952    0.271010786294937 
13    1.350000000000000    6.750000000000000    1.350000000000000   -0.001691217534244   -0.001831414876506   -0.008248425088823 
14    1.350000000000000    6.750000000000000    6.750000000000000    0.004083560314029    0.003002402372658    0.000309139781166 
15    1.350000000000000    9.449999999999999    4.050000000000000   -0.080901376903057   -0.090313956141472    0.149970695376396 
16    1.350000000000000    9.449999999999999    9.449999999999999   -0.008957628160715   -0.004468839149922    0.258059501647949 
17    2.700000000000000    0.000000000000000    2.740000000000000    0.007990050129592   -0.010325347073376   -0.503458917140961 
18    2.700000000000000    0.000000000000000    8.100000000000000    0.003412625752389    0.001240598852746    0.013596298173070 
19    2.700000000000000    2.700000000000000    0.000000000000000   -0.004835997708142    0.000532899692189   -0.261737763881683 
20    2.700000000000000    2.700000000000000    5.400000000000000   -0.000696242961567    0.001856633345596   -0.012574725784361 
21    2.700000000000000    5.400000000000000    2.700000000000000   -0.001527429674752   -0.000352429662598   -0.007812645286322 
22    2.700000000000000    5.400000000000000    8.100000000000000   -0.001656545093283   -0.001042151125148    0.008004335686564 
23    2.700000000000000    8.100000000000000    0.000000000000000   -0.014615627937019    0.019346529617906   -0.265856802463531 
24    2.700000000000000    8.100000000000000    5.400000000000000   -0.001038967631757   -0.001416853629053   -0.013848445378244 
25    4.050000000000000    1.350000000000000    4.050000000000000    0.087204188108444    0.084864869713783    0.148937210440636 
26    4.050000000000000    1.350000000000000    9.449999999999999   -0.006660893093795   -0.010203143581748    0.263496816158295 
27    4.050000000000000    4.050000000000000    1.350000000000000    0.001717637758702    0.003384503303096   -0.034004680812359 
28    4.050000000000000    4.050000000000000    6.750000000000000   -0.003909205552191   -0.002707853913307    0.005892476532608 
29    4.050000000000000    6.750000000000000    4.050000000000000    0.000809627294075    0.000790273654275    0.013911281712353 
30    4.050000000000000    6.750000000000000    9.449999999999999    0.002282919362187   -0.014783715829253    0.269429624080658 
31    4.050000000000000    9.449999999999999    1.350000000000000   -0.013096736744046    0.009852105751634   -0.002139521762729 
32    4.050000000000000    9.449999999999999    6.750000000000000   -0.002091772621498    0.001591254142113    0.007980816997588 
33    5.400000000000000    0.000000000000000    0.000000000000000    0.005176589824259   -0.013492777012289   -0.272207468748093 
34    5.400000000000000    0.000000000000000    5.400000000000000    0.001290744519792    0.002726307371631   -0.009661341086030 
35    5.400000000000000    2.700000000000000    2.700000000000000   -0.002143084537238    0.000411065411754   -0.002505956683308 
36    5.400000000000000    2.700000000000000    8.100000000000000    0.001722948742099    0.000148848819663    0.009517745114863 
37    5.400000000000000    5.400000000000000    0.000000000000000   -0.004723398946226   -0.008929134346545   -0.256438940763474 
38    5.400000000000000    5.400000000000000    5.400000000000000   -0.000229354162002    0.001756113138981   -0.013303605839610 
39    5.400000000000000    8.100000000000000    2.700000000000000   -0.000214160783798   -0.000073005445302   -0.011932258494198 
40    5.400000000000000    8.100000000000000    8.100000000000000    0.002140711527318   -0.000559139472898    0.017037006095052 
41    6.750000000000000    1.350000000000000    1.350000000000000    0.002098941942677    0.002695593517274   -0.010688449256122 
42    6.750000000000000    1.350000000000000    6.750000000000000   -0.000643570732791   -0.001753353397362    0.006692069582641 
43    6.750000000000000    4.050000000000000    4.050000000000000   -0.002038436476141   -0.003544334787875    0.013117742724717 
44    6.750000000000000    4.050000000000000    9.449999999999999   -0.003002019599080    0.011185060255229    0.261397659778595 
45    6.750000000000000    6.750000000000000    1.350000000000000   -0.002708746818826    0.001778593054041   -0.018918998539448 
46    6.750000000000000    6.750000000000000    6.750000000000000    0.002142966724932    0.000768558937125   -0.000514638202731 
47    6.750000000000000    9.449999999999999    4.050000000000000    0.000075200128776    0.002873748540878    0.015046403743327 
48    6.750000000000000    9.449999999999999    9.449999999999999   -0.000491422833875   -0.006469958927482    0.269509643316269 
49    8.100000000000000    0.000000000000000    2.700000000000000    0.004058219958097   -0.001371068647131   -0.005770929623395 
50    8.100000000000000    0.000000000000000    8.100000000000000    0.001206433982588   -0.000488597725052    0.006906882859766 
51    8.100000000000000    2.700000000000000    0.000000000000000   -0.013262530788779    0.020887153223157   -0.252285867929459 
52    8.100000000000000    2.700000000000000    5.400000000000000   -0.000438465183834    0.003624559845775   -0.014139305800200 
53    8.100000000000000    5.400000000000000    2.700000000000000   -0.002265036338940   -0.000206420590985   -0.004372976254672 
54    8.100000000000000    5.400000000000000    8.100000000000000   -0.001509236870334   -0.003828453831375    0.011345259845257 
55    8.100000000000000    8.100000000000000    0.000000000000000   -0.000118257346912    0.011232492513955   -0.274289309978485 
56    8.100000000000000    8.100000000000000    5.400000000000000    0.002301530214027    0.000128063242300   -0.014278086833656 
57    9.449999999999999    1.350000000000000    4.050000000000000    0.000070529327786   -0.005962814670056    0.020611062645912 
58    9.449999999999999    1.350000000000000    9.449999999999999   -0.013591897673905    0.012429788708687    0.256465971469879 
59    9.449999999999999    4.050000000000000    1.350000000000000   -0.000934235460591   -0.001958019100130   -0.013211066834629 
60    9.449999999999999    4.050000000000000    6.750000000000000    0.001871008193120   -0.000979909324087    0.001342831412330 
61    9.449999999999999    6.750000000000000    4.050000000000000   -0.000154738459969   -0.001226762542501    0.017465170472860 
62    9.449999999999999    6.750000000000000    9.449999999999999    0.001672608195804   -0.003682106267661    0.270172029733658 
63    9.449999999999999    9.449999999999999    1.350000000000000    0.014130367897451    0.059951379895210   -0.106148965656757 
64    9.449999999999999    9.449999999999999    6.750000000000000    0.000762939860579    0.003106513991952    0.007874282076955 
