ITEM: TIMESTEP
0
ITEM: NUMBER OF ATOMS
64
ITEM: BOX BOUNDS xy xz yz pp pp pp
0.0000000000000000e+00 1.0800000000000001e+01 0.0000000000000000e+00
0.0000000000000000e+00 1.0800000000000001e+01 0.0000000000000000e+00
0.0000000000000000e+00 1.0800000000000001e+01 0.0000000000000000e+00
ITEM: ATOMS id xu yu zu fx fy fz 
1    0.040000000000000    0.000000000000000    0.000000000000000   -0.273255705833435   -0.402719020843506   -0.379495084285736 
2    0.000000000000000    0.000000000000000    5.400000000000000   -0.004842021968216   -0.000938181474339   -0.011986863799393 
3    0.000000000000000    2.700000000000000    2.700000000000000   -0.099856719374657    0.110422872006893    0.084670215845108 
4    0.000000000000000    2.700000000000000    8.100000000000000    0.000807321805041    0.001410116790794    0.019240355119109 
5    0.000000000000000    5.400000000000000    0.000000000000000    0.006044585723430   -0.007954791188240   -0.279358237981796 
6    0.000000000000000    5.400000000000000    5.400000000000000    0.002320536412299   -0.000503114191815   -0.016021369025111 
7    0.000000000000000    8.100000000000000    2.700000000000000    0.002047186018899    0.001052517560311   -0.012160712853074 
8    0.000000000000000    8.100000000000000    8.100000000000000    0.002854299033061    0.000807702192105    0.031193671748042 
9    1.310000000000000    1.350000000000000    1.350000000000000    0.454679280519485    0.112622141838074    0.001784662017599 
10    1.350000000000000    1.350000000000000    6.750000000000000    0.003378832945600   -0.001075801555999   -0.000095523806522 
11    1.350000000000000    4.050000000000000    4.050000000000000   -0.003687591524795    0.002505907090381    0.012052299454808 
12    1.350000000000000    4.050000000000000    9.449999999999999    0.004126365762204    0.005104111973196    0.248763471841812 
13    1.350000000000000    6.750000000000000    1.350000000000000   -0.001743191503920    0.001771172042936   -0.018802592530847 
14    1.350000000000000    6.750000000000000    6.750000000000000   -0.000340334256180    0.002420865697786    0.003636613022536 
15    1.350000000000000    9.449999999999999    4.050000000000000    0.003553092945367    0.006023412570357    0.013087791390717 
16    1.350000000000000    9.449999999999999    9.449999999999999    0.003267080290243   -0.001528759486973    0.268164664506912 
17    2.700000000000000    0.000000000000000    2.700000000000000   -0.076450966298580    0.065913744270802   -0.109968960285187 
18    2.700000000000000    0.000000000000000    8.100000000000000    0.000825120601803    0.000118409065180    0.013728437945247 
19    2.700000000000000    2.700000000000000    0.000000000000000   -0.069225355982780   -0.087309062480927   -0.180221036076546 
20    2.700000000000000    2.700000000000000    5.400000000000000   -0.000882263178937    0.000215553940507   -0.015317880548537 
21    2.700000000000000    5.400000000000000    2.700000000000000   -0.001011740299873   -0.005147712770849   -0.010121234692633 
22    2.700000000000000    5.400000000000000    8.100000000000000   -0.000898127676919   -0.000625774613582    0.012546584010124 
23    2.700000000000000    8.100000000000000    0.000000000000000   -0.013017553836107    0.012636945582926   -0.251406431198120 
24    2.700000000000000    8.100000000000000    5.400000000000000   -0.002487944904715    0.000650843197946   -0.011813555844128 
25    4.050000000000000    1.350000000000000    4.050000000000000   -0.003010111162439   -0.000173952939804    0.007064512930810 
26    4.050000000000000    1.350000000000000    9.449999999999999   -0.007145564071834    0.017446435987949    0.247107267379761 
27    4.050000000000000    4.050000000000000    1.350000000000000   -0.002992277964950   -0.001262191100977   -0.021530751138926 
28    4.050000000000000    4.050000000000000    6.750000000000000    0.001246245461516    0.001121911103837    0.008645015768707 
29    4.050000000000000    6.750000000000000    4.050000000000000   -0.000925556756556   -0.002594847232103    0.013775599189103 
30    4.050000000000000    6.750000000000000    9.449999999999999    0.007103683892637    0.003086169948801    0.262170732021332 
31    4.050000000000000    9.449999999999999    1.350000000000000    0.001559499651194    0.002904613036662   -0.027445692569017 
32    4.050000000000000    9.449999999999999    6.750000000000000   -0.002011202508584    0.001022902783006    0.004274159204215 
33    5.400000000000000    0.000000000000000    0.000000000000000    0.015140519477427   -0.003945482894778   -0.259389817714691 
34    5.400000000000000    0.000000000000000    5.400000000000000   -0.001395548693836    0.001556001836434   -0.014606476761401 
35    5.400000000000000    2.700000000000000    2.700000000000000   -0.002654888667166    0.000935757649131   -0.002589217619970 
36    5.400000000000000    2.700000000000000    8.100000000000000    0.001007720595226    0.002474763197824    0.011926569044590 
37    5.400000000000000    5.400000000000000    0.000000000000000   -0.012086798436940    0.014067301526666   -0.238832548260689 
38    5.400000000000000    5.400000000000000    5.400000000000000    0.000252310768701   -0.000328156340402   -0.012695582583547 
39    5.400000000000000    8.100000000000000    2.700000000000000   -0.001514715724625   -0.001389985089190   -0.005810799542814 
40    5.400000000000000    8.100000000000000    8.100000000000000    0.004037520848215   -0.000606634770520    0.014965934678912 
41    6.750000000000000    1.350000000000000    1.350000000000000    0.004011031240225   -0.001174036995508   -0.011825804598629 
42    6.750000000000000    1.350000000000000    6.750000000000000   -0.001715321792290    0.001334449043497    0.002194778760895 
43    6.750000000000000    4.050000000000000    4.050000000000000   -0.001372376806103   -0.005528889596462    0.011917886324227 
44    6.750000000000000    4.050000000000000    9.449999999999999   -0.002270950935781    0.000641293416265    0.246344745159149 
45    6.750000000000000    6.750000000000000    1.350000000000000   -0.005489312112331   -0.002079559722915   -0.019645486027002 
46    6.750000000000000    6.750000000000000    6.750000000000000    0.001401227083988    0.001825119135901    0.006943678949028 
47    6.750000000000000    9.449999999999999    4.050000000000000   -0.000687470019329    0.001818466349505    0.016212781891227 
48    6.750000000000000    9.449999999999999    9.449999999999999   -0.003567570820451    0.004127508960664    0.261399656534195 
49    8.100000000000000    0.000000000000000    2.700000000000000    0.007074582856148   -0.000116730960144   -0.013212083838880 
50    8.100000000000000    0.000000000000000    8.100000000000000    0.000821610330604    0.001710983226076    0.007307676598430 
51    8.100000000000000    2.700000000000000    0.000000000000000   -0.017675781622529    0.035991791635752   -0.253866493701935 
52    8.100000000000000    2.700000000000000    5.400000000000000   -0.001189962844364    0.001934440922923   -0.012389646843076 
53    8.100000000000000    5.400000000000000    2.700000000000000   -0.004446348175406   -0.003667181124911   -0.002838900079951 
54    8.100000000000000    5.400000000000000    8.100000000000000    0.001934328465723   -0.001647396362387    0.014497111551464 
55    8.100000000000000    8.100000000000000    0.000000000000000    0.006031305529177    0.014719438739121   -0.270780175924301 
56    8.100000000000000    8.100000000000000    5.400000000000000   -0.000454122229712    0.001106858486310   -0.013935737311840 
57    9.449999999999999    1.350000000000000    4.050000000000000   -0.004304293543100    0.001263572252356    0.022942058742046 
58    9.449999999999999    1.350000000000000    9.449999999999999    0.000826814502943    0.010534802451730    0.253647178411484 
59    9.449999999999999    4.050000000000000    1.350000000000000   -0.000676974712405    0.000819455599412   -0.019556570798159 
60    9.449999999999999    4.050000000000000    6.750000000000000   -0.000470099068480    0.002686908235773    0.001937338151038 
61    9.449999999999999    6.750000000000000    4.050000000000000   -0.003015300957486   -0.000458644673927    0.010970949195325 
62    9.449999999999999    6.750000000000000    9.449999999999999   -0.001388163305819    0.001034323824570    0.264869511127472 
63    9.449999999999999    9.449999999999999    1.350000000000000    0.004704274702817    0.051866024732590   -0.141112878918648 
64    9.449999999999999    9.449999999999999    6.750000000000000   -0.004871179349720    0.001305066281930    0.005465610884130 
