# Structure data of Mn15Si26 (2x2x2 conventional) 

1312 atoms
2 atom types

0.0 10.9920339584 xlo xhi
0.0 10.9920339584 ylo yhi
0.0 130.2388305664 zlo zhi
0.000000    0.000000    0.000000   xy xz yz

Masses

1 54.938049  # Mn
2 28.0855  # Si

Atoms  # atomic

1 1 2.7480084896 0.0 14.0196275522
2 1 2.7480084896 0.0 79.1390408818
3 1 2.7480084896 5.4960169792 14.0196275522
4 1 2.7480084896 5.4960169792 79.1390408818
5 1 8.2440254688 0.0 14.0196275522
6 1 8.2440254688 0.0 79.1390408818
7 1 8.2440254688 5.4960169792 14.0196275522
8 1 8.2440254688 5.4960169792 79.1390408818
9 1 2.7480084896 0.0 18.5400800894
10 1 2.7480084896 0.0 83.6594973262
11 1 2.7480084896 5.4960169792 18.5400800894
12 1 2.7480084896 5.4960169792 83.6594973262
13 1 8.2440254688 0.0 18.5400800894
14 1 8.2440254688 0.0 83.6594973262
15 1 8.2440254688 5.4960169792 18.5400800894
16 1 8.2440254688 5.4960169792 83.6594973262
17 1 2.7480084896 2.7480084896 2.2602258779
18 1 2.7480084896 2.7480084896 67.3796435054
19 1 2.7480084896 8.2440254688 2.2602258779
20 1 2.7480084896 8.2440254688 67.3796435054
21 1 8.2440254688 2.7480084896 2.2602258779
22 1 8.2440254688 2.7480084896 67.3796435054
23 1 8.2440254688 8.2440254688 2.2602258779
24 1 8.2440254688 8.2440254688 67.3796435054
25 1 0.0 0.0 30.299481373
26 1 0.0 0.0 95.4188947026
27 1 0.0 5.4960169792 30.299481373
28 1 0.0 5.4960169792 95.4188947026
29 1 5.4960169792 0.0 30.299481373
30 1 5.4960169792 0.0 95.4188947026
31 1 5.4960169792 5.4960169792 30.299481373
32 1 5.4960169792 5.4960169792 95.4188947026
33 1 2.7480084896 0.0 9.8404175518
34 1 2.7480084896 0.0 74.9598308815
35 1 2.7480084896 5.4960169792 9.8404175518
36 1 2.7480084896 5.4960169792 74.9598308815
37 1 8.2440254688 0.0 9.8404175518
38 1 8.2440254688 0.0 74.9598308815
39 1 8.2440254688 5.4960169792 9.8404175518
40 1 8.2440254688 5.4960169792 74.9598308815
41 1 2.7480084896 0.0 22.7192900898
42 1 2.7480084896 0.0 87.8387073265
43 1 2.7480084896 5.4960169792 22.7192900898
44 1 2.7480084896 5.4960169792 87.8387073265
45 1 8.2440254688 0.0 22.7192900898
46 1 8.2440254688 0.0 87.8387073265
47 1 8.2440254688 5.4960169792 22.7192900898
48 1 8.2440254688 5.4960169792 87.8387073265
49 1 2.7480084896 2.7480084896 6.439436269
50 1 2.7480084896 2.7480084896 71.5588535057
51 1 2.7480084896 8.2440254688 6.439436269
52 1 2.7480084896 8.2440254688 71.5588535057
53 1 8.2440254688 2.7480084896 6.439436269
54 1 8.2440254688 2.7480084896 71.5588535057
55 1 8.2440254688 8.2440254688 6.439436269
56 1 8.2440254688 8.2440254688 71.5588535057
57 1 0.0 0.0 26.1202713726
58 1 0.0 0.0 91.2396847023
59 1 0.0 5.4960169792 26.1202713726
60 1 0.0 5.4960169792 91.2396847023
61 1 5.4960169792 0.0 26.1202713726
62 1 5.4960169792 0.0 91.2396847023
63 1 5.4960169792 5.4960169792 26.1202713726
64 1 5.4960169792 5.4960169792 91.2396847023
65 1 2.7480084896 0.0 5.3248584782
66 1 2.7480084896 0.0 70.4442727195
67 1 2.7480084896 5.4960169792 5.3248584782
68 1 2.7480084896 5.4960169792 70.4442727195
69 1 8.2440254688 0.0 5.3248584782
70 1 8.2440254688 0.0 70.4442727195
71 1 8.2440254688 5.4960169792 5.3248584782
72 1 8.2440254688 5.4960169792 70.4442727195
73 1 2.7480084896 0.0 27.2348502053
74 1 2.7480084896 0.0 92.3542654885
75 1 2.7480084896 5.4960169792 27.2348502053
76 1 2.7480084896 5.4960169792 92.3542654885
77 1 8.2440254688 0.0 27.2348502053
78 1 8.2440254688 0.0 92.3542654885
79 1 8.2440254688 5.4960169792 27.2348502053
80 1 8.2440254688 5.4960169792 92.3542654885
81 1 2.7480084896 2.7480084896 10.9549953426
82 1 2.7480084896 2.7480084896 76.0744116677
83 1 2.7480084896 8.2440254688 10.9549953426
84 1 2.7480084896 8.2440254688 76.0744116677
85 1 8.2440254688 2.7480084896 10.9549953426
86 1 8.2440254688 2.7480084896 76.0744116677
87 1 8.2440254688 8.2440254688 10.9549953426
88 1 8.2440254688 8.2440254688 76.0744116677
89 1 0.0 0.0 21.6047112571
90 1 0.0 0.0 86.7241265403
91 1 0.0 5.4960169792 21.6047112571
92 1 0.0 5.4960169792 86.7241265403
93 1 5.4960169792 0.0 21.6047112571
94 1 5.4960169792 0.0 86.7241265403
95 1 5.4960169792 5.4960169792 21.6047112571
96 1 5.4960169792 5.4960169792 86.7241265403
97 1 2.7480084896 0.0 1.1265977929
98 1 2.7480084896 0.0 66.2460128156
99 1 2.7480084896 5.4960169792 1.1265977929
100 1 2.7480084896 5.4960169792 66.2460128156
101 1 8.2440254688 0.0 1.1265977929
102 1 8.2440254688 0.0 66.2460128156
103 1 8.2440254688 5.4960169792 1.1265977929
104 1 8.2440254688 5.4960169792 66.2460128156
105 1 2.7480084896 0.0 31.4331101092
106 1 2.7480084896 0.0 96.5525253924
107 1 2.7480084896 5.4960169792 31.4331101092
108 1 2.7480084896 5.4960169792 96.5525253924
109 1 8.2440254688 0.0 31.4331101092
110 1 8.2440254688 0.0 96.5525253924
111 1 8.2440254688 5.4960169792 31.4331101092
112 1 8.2440254688 5.4960169792 96.5525253924
113 1 2.7480084896 2.7480084896 15.1532562884
114 1 2.7480084896 2.7480084896 80.2726715716
115 1 2.7480084896 8.2440254688 15.1532562884
116 1 2.7480084896 8.2440254688 80.2726715716
117 1 8.2440254688 2.7480084896 15.1532562884
118 1 8.2440254688 2.7480084896 80.2726715716
119 1 8.2440254688 8.2440254688 15.1532562884
120 1 8.2440254688 8.2440254688 80.2726715716
121 1 0.0 0.0 17.4064513532
122 1 0.0 0.0 82.5258666364
123 1 0.0 5.4960169792 17.4064513532
124 1 0.0 5.4960169792 82.5258666364
125 1 5.4960169792 0.0 17.4064513532
126 1 5.4960169792 0.0 82.5258666364
127 1 5.4960169792 5.4960169792 17.4064513532
128 1 5.4960169792 5.4960169792 82.5258666364
129 1 0.0 2.7480084896 29.2300648084
130 1 0.0 2.7480084896 94.349478138
131 1 0.0 8.2440254688 29.2300648084
132 1 0.0 8.2440254688 94.349478138
133 1 5.4960169792 2.7480084896 29.2300648084
134 1 5.4960169792 2.7480084896 94.349478138
135 1 5.4960169792 8.2440254688 29.2300648084
136 1 5.4960169792 8.2440254688 94.349478138
137 1 0.0 2.7480084896 3.3296436146
138 1 0.0 2.7480084896 68.44906007
139 1 0.0 8.2440254688 3.3296436146
140 1 0.0 8.2440254688 68.44906007
141 1 5.4960169792 2.7480084896 3.3296436146
142 1 5.4960169792 2.7480084896 68.44906007
143 1 5.4960169792 8.2440254688 3.3296436146
144 1 5.4960169792 8.2440254688 68.44906007
145 1 2.7480084896 2.7480084896 19.609496654
146 1 2.7480084896 2.7480084896 84.7289138908
147 1 2.7480084896 8.2440254688 19.609496654
148 1 2.7480084896 8.2440254688 84.7289138908
149 1 8.2440254688 2.7480084896 19.609496654
150 1 8.2440254688 2.7480084896 84.7289138908
151 1 8.2440254688 8.2440254688 19.609496654
152 1 8.2440254688 8.2440254688 84.7289138908
153 1 0.0 0.0 12.9502100759
154 1 0.0 0.0 78.0696243172
155 1 0.0 5.4960169792 12.9502100759
156 1 0.0 5.4960169792 78.0696243172
157 1 5.4960169792 0.0 12.9502100759
158 1 5.4960169792 0.0 78.0696243172
159 1 5.4960169792 5.4960169792 12.9502100759
160 1 5.4960169792 5.4960169792 78.0696243172
161 1 0.0 2.7480084896 24.9826758222
162 1 0.0 2.7480084896 90.1020950125
163 1 0.0 8.2440254688 24.9826758222
164 1 0.0 8.2440254688 90.1020950125
165 1 5.4960169792 2.7480084896 24.9826758222
166 1 5.4960169792 2.7480084896 90.1020950125
167 1 5.4960169792 8.2440254688 24.9826758222
168 1 5.4960169792 8.2440254688 90.1020950125
169 1 0.0 2.7480084896 7.5770312985
170 1 0.0 2.7480084896 72.6964431955
171 1 0.0 8.2440254688 7.5770312985
172 1 0.0 8.2440254688 72.6964431955
173 1 5.4960169792 2.7480084896 7.5770312985
174 1 5.4960169792 2.7480084896 72.6964431955
175 1 5.4960169792 8.2440254688 7.5770312985
176 1 5.4960169792 8.2440254688 72.6964431955
177 1 2.7480084896 2.7480084896 23.8568856402
178 1 2.7480084896 2.7480084896 88.9762970163
179 1 2.7480084896 8.2440254688 23.8568856402
180 1 2.7480084896 8.2440254688 88.9762970163
181 1 8.2440254688 2.7480084896 23.8568856402
182 1 8.2440254688 2.7480084896 88.9762970163
183 1 8.2440254688 8.2440254688 23.8568856402
184 1 8.2440254688 8.2440254688 88.9762970163
185 1 0.0 0.0 8.7028220014
186 1 0.0 0.0 73.8222411917
187 1 0.0 5.4960169792 8.7028220014
188 1 0.0 5.4960169792 73.8222411917
189 1 5.4960169792 0.0 8.7028220014
190 1 5.4960169792 0.0 73.8222411917
191 1 5.4960169792 5.4960169792 8.7028220014
192 1 5.4960169792 5.4960169792 73.8222411917
193 1 0.0 2.7480084896 20.5945155911
194 1 0.0 2.7480084896 85.7139328279
195 1 0.0 8.2440254688 20.5945155911
196 1 0.0 8.2440254688 85.7139328279
197 1 5.4960169792 2.7480084896 20.5945155911
198 1 5.4960169792 2.7480084896 85.7139328279
199 1 5.4960169792 8.2440254688 20.5945155911
200 1 5.4960169792 8.2440254688 85.7139328279
201 1 0.0 2.7480084896 11.9651911388
202 1 0.0 2.7480084896 77.0846053801
203 1 0.0 8.2440254688 11.9651911388
204 1 0.0 8.2440254688 77.0846053801
205 1 5.4960169792 2.7480084896 11.9651911388
206 1 5.4960169792 2.7480084896 77.0846053801
207 1 5.4960169792 8.2440254688 11.9651911388
208 1 5.4960169792 8.2440254688 77.0846053801
209 1 2.7480084896 2.7480084896 28.2450458713
210 1 2.7480084896 2.7480084896 93.3644592009
211 1 2.7480084896 8.2440254688 28.2450458713
212 1 2.7480084896 8.2440254688 93.3644592009
213 1 8.2440254688 2.7480084896 28.2450458713
214 1 8.2440254688 2.7480084896 93.3644592009
215 1 8.2440254688 8.2440254688 28.2450458713
216 1 8.2440254688 8.2440254688 93.3644592009
217 1 0.0 0.0 4.314662682
218 1 0.0 0.0 69.4340790071
219 1 0.0 5.4960169792 4.314662682
220 1 0.0 5.4960169792 69.4340790071
221 1 5.4960169792 0.0 4.314662682
222 1 5.4960169792 0.0 69.4340790071
223 1 5.4960169792 5.4960169792 4.314662682
224 1 5.4960169792 5.4960169792 69.4340790071
225 1 0.0 2.7480084896 16.2798538208
226 1 0.0 2.7480084896 81.399269104
227 1 0.0 8.2440254688 16.2798538208
228 1 0.0 8.2440254688 81.399269104
229 1 5.4960169792 2.7480084896 16.2798538208
230 1 5.4960169792 2.7480084896 81.399269104
231 1 5.4960169792 8.2440254688 16.2798538208
232 1 5.4960169792 8.2440254688 81.399269104
233 1 0.0 0.0 0.0
234 1 0.0 0.0 65.1194152832
235 1 0.0 5.4960169792 0.0
236 1 0.0 5.4960169792 65.1194152832
237 1 5.4960169792 0.0 0.0
238 1 5.4960169792 0.0 65.1194152832
239 1 5.4960169792 5.4960169792 0.0
240 1 5.4960169792 5.4960169792 65.1194152832
241 1 0.0 2.7480084896 46.5793370171
242 1 0.0 2.7480084896 111.6987485234
243 1 0.0 8.2440254688 46.5793370171
244 1 0.0 8.2440254688 111.6987485234
245 1 5.4960169792 2.7480084896 46.5793370171
246 1 5.4960169792 2.7480084896 111.6987485234
247 1 5.4960169792 8.2440254688 46.5793370171
248 1 5.4960169792 8.2440254688 111.6987485234
249 1 0.0 2.7480084896 51.0997859077
250 1 0.0 2.7480084896 116.2192049678
251 1 0.0 8.2440254688 51.0997859077
252 1 0.0 8.2440254688 116.2192049678
253 1 5.4960169792 2.7480084896 51.0997859077
254 1 5.4960169792 2.7480084896 116.2192049678
255 1 5.4960169792 8.2440254688 51.0997859077
256 1 5.4960169792 8.2440254688 116.2192049678
257 1 0.0 0.0 34.8199320869
258 1 0.0 0.0 99.939351147
259 1 0.0 5.4960169792 34.8199320869
260 1 0.0 5.4960169792 99.939351147
261 1 5.4960169792 0.0 34.8199320869
262 1 5.4960169792 0.0 99.939351147
263 1 5.4960169792 5.4960169792 34.8199320869
264 1 5.4960169792 5.4960169792 99.939351147
265 1 2.7480084896 2.7480084896 62.8591908379
266 1 2.7480084896 2.7480084896 127.9786023442
267 1 2.7480084896 8.2440254688 62.8591908379
268 1 2.7480084896 8.2440254688 127.9786023442
269 1 8.2440254688 2.7480084896 62.8591908379
270 1 8.2440254688 2.7480084896 127.9786023442
271 1 8.2440254688 8.2440254688 62.8591908379
272 1 8.2440254688 8.2440254688 127.9786023442
273 1 0.0 2.7480084896 42.4001232399
274 1 0.0 2.7480084896 107.5195385231
275 1 0.0 8.2440254688 42.4001232399
276 1 0.0 8.2440254688 107.5195385231
277 1 5.4960169792 2.7480084896 42.4001232399
278 1 5.4960169792 2.7480084896 107.5195385231
279 1 5.4960169792 8.2440254688 42.4001232399
280 1 5.4960169792 8.2440254688 107.5195385231
281 1 0.0 2.7480084896 55.2789996849
282 1 0.0 2.7480084896 120.3984149681
283 1 0.0 8.2440254688 55.2789996849
284 1 0.0 8.2440254688 120.3984149681
285 1 5.4960169792 2.7480084896 55.2789996849
286 1 5.4960169792 2.7480084896 120.3984149681
287 1 5.4960169792 8.2440254688 55.2789996849
288 1 5.4960169792 8.2440254688 120.3984149681
289 1 0.0 0.0 38.9991458641
290 1 0.0 0.0 104.1185611473
291 1 0.0 5.4960169792 38.9991458641
292 1 0.0 5.4960169792 104.1185611473
293 1 5.4960169792 0.0 38.9991458641
294 1 5.4960169792 0.0 104.1185611473
295 1 5.4960169792 5.4960169792 38.9991458641
296 1 5.4960169792 5.4960169792 104.1185611473
297 1 2.7480084896 2.7480084896 58.6799770607
298 1 2.7480084896 2.7480084896 123.7993923439
299 1 2.7480084896 8.2440254688 58.6799770607
300 1 2.7480084896 8.2440254688 123.7993923439
301 1 8.2440254688 2.7480084896 58.6799770607
302 1 8.2440254688 2.7480084896 123.7993923439
303 1 8.2440254688 8.2440254688 58.6799770607
304 1 8.2440254688 8.2440254688 123.7993923439
305 1 0.0 2.7480084896 37.8845650779
306 1 0.0 2.7480084896 103.0039803611
307 1 0.0 8.2440254688 37.8845650779
308 1 0.0 8.2440254688 103.0039803611
309 1 5.4960169792 2.7480084896 37.8845650779
310 1 5.4960169792 2.7480084896 103.0039803611
311 1 5.4960169792 8.2440254688 37.8845650779
312 1 5.4960169792 8.2440254688 103.0039803611
313 1 0.0 2.7480084896 59.7945578469
314 1 0.0 2.7480084896 124.9139731301
315 1 0.0 8.2440254688 59.7945578469
316 1 0.0 8.2440254688 124.9139731301
317 1 5.4960169792 2.7480084896 59.7945578469
318 1 5.4960169792 2.7480084896 124.9139731301
319 1 5.4960169792 8.2440254688 59.7945578469
320 1 5.4960169792 8.2440254688 124.9139731301
321 1 0.0 0.0 43.5147040261
322 1 0.0 0.0 108.6341193093
323 1 0.0 5.4960169792 43.5147040261
324 1 0.0 5.4960169792 108.6341193093
325 1 5.4960169792 0.0 43.5147040261
326 1 5.4960169792 0.0 108.6341193093
327 1 5.4960169792 5.4960169792 43.5147040261
328 1 5.4960169792 5.4960169792 108.6341193093
329 1 2.7480084896 2.7480084896 54.1644188987
330 1 2.7480084896 2.7480084896 119.2838341819
331 1 2.7480084896 8.2440254688 54.1644188987
332 1 2.7480084896 8.2440254688 119.2838341819
333 1 8.2440254688 2.7480084896 54.1644188987
334 1 8.2440254688 2.7480084896 119.2838341819
335 1 8.2440254688 8.2440254688 54.1644188987
336 1 8.2440254688 8.2440254688 119.2838341819
337 1 0.0 2.7480084896 33.686305174
338 1 0.0 2.7480084896 98.8057204572
339 1 0.0 8.2440254688 33.686305174
340 1 0.0 8.2440254688 98.8057204572
341 1 5.4960169792 2.7480084896 33.686305174
342 1 5.4960169792 2.7480084896 98.8057204572
343 1 5.4960169792 8.2440254688 33.686305174
344 1 5.4960169792 8.2440254688 98.8057204572
345 1 0.0 2.7480084896 63.9928177508
346 1 0.0 2.7480084896 129.112233034
347 1 0.0 8.2440254688 63.9928177508
348 1 0.0 8.2440254688 129.112233034
349 1 5.4960169792 2.7480084896 63.9928177508
350 1 5.4960169792 2.7480084896 129.112233034
351 1 5.4960169792 8.2440254688 63.9928177508
352 1 5.4960169792 8.2440254688 129.112233034
353 1 0.0 0.0 47.71296393
354 1 0.0 0.0 112.8323792132
355 1 0.0 5.4960169792 47.71296393
356 1 0.0 5.4960169792 112.8323792132
357 1 5.4960169792 0.0 47.71296393
358 1 5.4960169792 0.0 112.8323792132
359 1 5.4960169792 5.4960169792 47.71296393
360 1 5.4960169792 5.4960169792 112.8323792132
361 1 2.7480084896 2.7480084896 49.9661589948
362 1 2.7480084896 2.7480084896 115.085574278
363 1 2.7480084896 8.2440254688 49.9661589948
364 1 2.7480084896 8.2440254688 115.085574278
365 1 8.2440254688 2.7480084896 49.9661589948
366 1 8.2440254688 2.7480084896 115.085574278
367 1 8.2440254688 8.2440254688 49.9661589948
368 1 8.2440254688 8.2440254688 115.085574278
369 1 2.7480084896 0.0 61.7897704964
370 1 2.7480084896 0.0 126.9091857796
371 1 2.7480084896 5.4960169792 61.7897704964
372 1 2.7480084896 5.4960169792 126.9091857796
373 1 8.2440254688 0.0 61.7897704964
374 1 8.2440254688 0.0 126.9091857796
375 1 8.2440254688 5.4960169792 61.7897704964
376 1 8.2440254688 5.4960169792 126.9091857796
377 1 2.7480084896 0.0 35.8893524284
378 1 2.7480084896 0.0 101.0087677116
379 1 2.7480084896 5.4960169792 35.8893524284
380 1 2.7480084896 5.4960169792 101.0087677116
381 1 8.2440254688 0.0 35.8893524284
382 1 8.2440254688 0.0 101.0087677116
383 1 8.2440254688 5.4960169792 35.8893524284
384 1 8.2440254688 5.4960169792 101.0087677116
385 1 0.0 0.0 52.1692062492
386 1 0.0 0.0 117.2886215324
387 1 0.0 5.4960169792 52.1692062492
388 1 0.0 5.4960169792 117.2886215324
389 1 5.4960169792 0.0 52.1692062492
390 1 5.4960169792 0.0 117.2886215324
391 1 5.4960169792 5.4960169792 52.1692062492
392 1 5.4960169792 5.4960169792 117.2886215324
393 1 2.7480084896 2.7480084896 45.5099166756
394 1 2.7480084896 2.7480084896 110.6293319588
395 1 2.7480084896 8.2440254688 45.5099166756
396 1 2.7480084896 8.2440254688 110.6293319588
397 1 8.2440254688 2.7480084896 45.5099166756
398 1 8.2440254688 2.7480084896 110.6293319588
399 1 8.2440254688 8.2440254688 45.5099166756
400 1 8.2440254688 8.2440254688 110.6293319588
401 1 2.7480084896 0.0 57.5423834638
402 1 2.7480084896 0.0 122.6618026541
403 1 2.7480084896 5.4960169792 57.5423834638
404 1 2.7480084896 5.4960169792 122.6618026541
405 1 8.2440254688 0.0 57.5423834638
406 1 8.2440254688 0.0 122.6618026541
407 1 8.2440254688 5.4960169792 57.5423834638
408 1 8.2440254688 5.4960169792 122.6618026541
409 1 2.7480084896 0.0 40.136739461
410 1 2.7480084896 0.0 105.2561508371
411 1 2.7480084896 5.4960169792 40.136739461
412 1 2.7480084896 5.4960169792 105.2561508371
413 1 8.2440254688 0.0 40.136739461
414 1 8.2440254688 0.0 105.2561508371
415 1 8.2440254688 5.4960169792 40.136739461
416 1 8.2440254688 5.4960169792 105.2561508371
417 1 0.0 0.0 56.4165932818
418 1 0.0 0.0 121.5360046579
419 1 0.0 5.4960169792 56.4165932818
420 1 0.0 5.4960169792 121.5360046579
421 1 5.4960169792 0.0 56.4165932818
422 1 5.4960169792 0.0 121.5360046579
423 1 5.4960169792 5.4960169792 56.4165932818
424 1 5.4960169792 5.4960169792 121.5360046579
425 1 2.7480084896 2.7480084896 41.262529643
426 1 2.7480084896 2.7480084896 106.3819488333
427 1 2.7480084896 8.2440254688 41.262529643
428 1 2.7480084896 8.2440254688 106.3819488333
429 1 8.2440254688 2.7480084896 41.262529643
430 1 8.2440254688 2.7480084896 106.3819488333
431 1 8.2440254688 8.2440254688 41.262529643
432 1 8.2440254688 8.2440254688 106.3819488333
433 1 2.7480084896 0.0 53.1542251863
434 1 2.7480084896 0.0 118.2736404695
435 1 2.7480084896 5.4960169792 53.1542251863
436 1 2.7480084896 5.4960169792 118.2736404695
437 1 8.2440254688 0.0 53.1542251863
438 1 8.2440254688 0.0 118.2736404695
439 1 8.2440254688 5.4960169792 53.1542251863
440 1 8.2440254688 5.4960169792 118.2736404695
441 1 2.7480084896 0.0 44.5248977385
442 1 2.7480084896 0.0 109.6443130217
443 1 2.7480084896 5.4960169792 44.5248977385
444 1 2.7480084896 5.4960169792 109.6443130217
445 1 8.2440254688 0.0 44.5248977385
446 1 8.2440254688 0.0 109.6443130217
447 1 8.2440254688 5.4960169792 44.5248977385
448 1 8.2440254688 5.4960169792 109.6443130217
449 1 0.0 0.0 60.8047515593
450 1 0.0 0.0 125.9241668425
451 1 0.0 5.4960169792 60.8047515593
452 1 0.0 5.4960169792 125.9241668425
453 1 5.4960169792 0.0 60.8047515593
454 1 5.4960169792 0.0 125.9241668425
455 1 5.4960169792 5.4960169792 60.8047515593
456 1 5.4960169792 5.4960169792 125.9241668425
457 1 2.7480084896 2.7480084896 36.8743713655
458 1 2.7480084896 2.7480084896 101.9937866487
459 1 2.7480084896 8.2440254688 36.8743713655
460 1 2.7480084896 8.2440254688 101.9937866487
461 1 8.2440254688 2.7480084896 36.8743713655
462 1 8.2440254688 2.7480084896 101.9937866487
463 1 8.2440254688 8.2440254688 36.8743713655
464 1 8.2440254688 8.2440254688 101.9937866487
465 1 2.7480084896 0.0 48.8395614624
466 1 2.7480084896 0.0 113.9589767456
467 1 2.7480084896 5.4960169792 48.8395614624
468 1 2.7480084896 5.4960169792 113.9589767456
469 1 8.2440254688 0.0 48.8395614624
470 1 8.2440254688 0.0 113.9589767456
471 1 8.2440254688 5.4960169792 48.8395614624
472 1 8.2440254688 5.4960169792 113.9589767456
473 1 2.7480084896 2.7480084896 32.5597076416
474 1 2.7480084896 2.7480084896 97.6791229248
475 1 2.7480084896 8.2440254688 32.5597076416
476 1 2.7480084896 8.2440254688 97.6791229248
477 1 8.2440254688 2.7480084896 32.5597076416
478 1 8.2440254688 2.7480084896 97.6791229248
479 1 8.2440254688 8.2440254688 32.5597076416
480 1 8.2440254688 8.2440254688 97.6791229248
481 2 1.9051053713 1.3740042448 8.1399269104
482 2 1.9051053713 1.3740042448 73.2593421936
483 2 1.9051053713 6.870021224 8.1399269104
484 2 1.9051053713 6.870021224 73.2593421936
485 2 7.4011221856 1.3740042448 8.1399269104
486 2 7.4011221856 1.3740042448 73.2593421936
487 2 7.4011221856 6.870021224 8.1399269104
488 2 7.4011221856 6.870021224 73.2593421936
489 2 4.1220127344 0.8429031183 24.4197807312
490 2 4.1220127344 0.8429031183 89.5391960144
491 2 4.1220127344 6.3389202624 24.4197807312
492 2 4.1220127344 6.3389202624 89.5391960144
493 2 9.6180297136 0.8429031183 24.4197807312
494 2 9.6180297136 0.8429031183 89.5391960144
495 2 9.6180297136 6.3389202624 24.4197807312
496 2 9.6180297136 6.3389202624 89.5391960144
497 2 1.3740042448 4.653113696 24.4197807312
498 2 1.3740042448 4.653113696 89.5391960144
499 2 1.3740042448 10.1491306752 24.4197807312
500 2 1.3740042448 10.1491306752 89.5391960144
501 2 6.870021224 4.653113696 24.4197807312
502 2 6.870021224 4.653113696 89.5391960144
503 2 6.870021224 10.1491306752 24.4197807312
504 2 6.870021224 10.1491306752 89.5391960144
505 2 3.5909117728 4.1220127344 8.1399269104
506 2 3.5909117728 4.1220127344 73.2593421936
507 2 3.5909117728 9.6180297136 8.1399269104
508 2 3.5909117728 9.6180297136 73.2593421936
509 2 9.086928752 4.1220127344 8.1399269104
510 2 9.086928752 4.1220127344 73.2593421936
511 2 9.086928752 9.6180297136 8.1399269104
512 2 9.086928752 9.6180297136 73.2593421936
513 2 0.8423048659 1.5872269391 23.0775799779
514 2 0.8423048659 1.5872269391 88.1969933075
515 2 0.8423048659 7.0832437534 23.0775799779
516 2 0.8423048659 7.0832437534 88.1969933075
517 2 6.3383220869 1.5872269391 23.0775799779
518 2 6.3383220869 1.5872269391 88.1969933075
519 2 6.3383220869 7.0832437534 23.0775799779
520 2 6.3383220869 7.0832437534 88.1969933075
521 2 4.6537122013 3.908790205 23.0775799779
522 2 4.6537122013 3.908790205 88.1969933075
523 2 4.6537122013 9.4048071842 23.0775799779
524 2 4.6537122013 9.4048071842 88.1969933075
525 2 10.1497288507 3.908790205 23.0775799779
526 2 10.1497288507 3.908790205 88.1969933075
527 2 10.1497288507 9.4048071842 23.0775799779
528 2 10.1497288507 9.4048071842 88.1969933075
529 2 4.3352352638 0.8423048659 6.7977256361
530 2 4.3352352638 0.8423048659 71.9171394867
531 2 4.3352352638 6.3383220869 6.7977256361
532 2 4.3352352638 6.3383220869 71.9171394867
533 2 9.831252243 0.8423048659 6.7977256361
534 2 9.831252243 0.8423048659 71.9171394867
535 2 9.831252243 6.3383220869 6.7977256361
536 2 9.831252243 6.3383220869 71.9171394867
537 2 1.1607816275 3.5903132675 9.4821276637
538 2 1.1607816275 3.5903132675 74.6015449005
539 2 1.1607816275 9.0863305765 9.4821276637
540 2 1.1607816275 9.0863305765 74.6015449005
541 2 6.6567986946 3.5903132675 9.4821276637
542 2 6.6567986946 3.5903132675 74.6015449005
543 2 6.6567986946 9.0863305765 9.4821276637
544 2 6.6567986946 9.0863305765 74.6015449005
545 2 4.3352352638 1.9057037117 9.4821276637
546 2 4.3352352638 1.9057037117 74.6015449005
547 2 4.3352352638 7.4017203611 9.4821276637
548 2 4.3352352638 7.4017203611 74.6015449005
549 2 9.831252243 1.9057037117 9.4821276637
550 2 9.831252243 1.9057037117 74.6015449005
551 2 9.831252243 7.4017203611 9.4821276637
552 2 9.831252243 7.4017203611 74.6015449005
553 2 3.5903132675 3.908790205 25.7619814845
554 2 3.5903132675 3.908790205 90.8813987213
555 2 3.5903132675 9.4048071842 25.7619814845
556 2 3.5903132675 9.4048071842 90.8813987213
557 2 9.0863305765 3.908790205 25.7619814845
558 2 9.0863305765 3.908790205 90.8813987213
559 2 9.0863305765 9.4048071842 25.7619814845
560 2 9.0863305765 9.4048071842 90.8813987213
561 2 1.9057037117 1.5872269391 25.7619814845
562 2 1.9057037117 1.5872269391 90.8813987213
563 2 1.9057037117 7.0832437534 25.7619814845
564 2 1.9057037117 7.0832437534 90.8813987213
565 2 7.4017203611 1.5872269391 25.7619814845
566 2 7.4017203611 1.5872269391 90.8813987213
567 2 7.4017203611 7.0832437534 25.7619814845
568 2 7.4017203611 7.0832437534 90.8813987213
569 2 1.1607816275 4.6537122013 6.7977256361
570 2 1.1607816275 4.6537122013 71.9171394867
571 2 1.1607816275 10.1497288507 6.7977256361
572 2 1.1607816275 10.1497288507 71.9171394867
573 2 6.6567986946 4.6537122013 6.7977256361
574 2 6.6567986946 4.6537122013 71.9171394867
575 2 6.6567986946 10.1497288507 6.7977256361
576 2 6.6567986946 10.1497288507 71.9171394867
577 2 1.7352355227 3.6076200821 21.8352599047
578 2 1.7352355227 3.6076200821 86.9546751879
579 2 1.7352355227 9.1036370613 21.8352599047
580 2 1.7352355227 9.1036370613 86.9546751879
581 2 7.2312526668 3.6076200821 21.8352599047
582 2 7.2312526668 3.6076200821 86.9546751879
583 2 7.2312526668 9.1036370613 21.8352599047
584 2 7.2312526668 9.1036370613 86.9546751879
585 2 3.7607816214 1.8883968971 21.8352599047
586 2 3.7607816214 1.8883968971 86.9546751879
587 2 3.7607816214 7.3844138763 21.8352599047
588 2 3.7607816214 7.3844138763 86.9546751879
589 2 9.2567982708 1.8883968971 21.8352599047
590 2 9.2567982708 1.8883968971 86.9546751879
591 2 9.2567982708 7.3844138763 21.8352599047
592 2 9.2567982708 7.3844138763 86.9546751879
593 2 0.8596115046 1.7352355227 5.5554064746
594 2 0.8596115046 1.7352355227 70.6748213671
595 2 0.8596115046 7.2312526668 5.5554064746
596 2 0.8596115046 7.2312526668 70.6748213671
597 2 6.3556285717 1.7352355227 5.5554064746
598 2 6.3556285717 1.7352355227 70.6748213671
599 2 6.3556285717 7.2312526668 5.5554064746
600 2 6.3556285717 7.2312526668 70.6748213671
601 2 4.6364053867 4.4832438474 10.7244477369
602 2 4.6364053867 4.4832438474 75.8438630201
603 2 4.6364053867 9.9792611564 10.7244477369
604 2 4.6364053867 9.9792611564 75.8438630201
605 2 10.1324223659 4.4832438474 10.7244477369
606 2 10.1324223659 4.4832438474 75.8438630201
607 2 10.1324223659 9.9792611564 10.7244477369
608 2 10.1324223659 9.9792611564 75.8438630201
609 2 0.8596115046 1.0127729669 10.7244477369
610 2 0.8596115046 1.0127729669 75.8438630201
611 2 0.8596115046 6.5087897812 10.7244477369
612 2 0.8596115046 6.5087897812 75.8438630201
613 2 6.3556285717 1.0127729669 10.7244477369
614 2 6.3556285717 1.0127729669 75.8438630201
615 2 6.3556285717 6.5087897812 10.7244477369
616 2 6.3556285717 6.5087897812 75.8438630201
617 2 4.4832438474 1.8883968971 27.0043015577
618 2 4.4832438474 1.8883968971 92.1237168409
619 2 4.4832438474 7.3844138763 27.0043015577
620 2 4.4832438474 7.3844138763 92.1237168409
621 2 9.9792611564 1.8883968971 27.0043015577
622 2 9.9792611564 1.8883968971 92.1237168409
623 2 9.9792611564 7.3844138763 27.0043015577
624 2 9.9792611564 7.3844138763 92.1237168409
625 2 1.0127729669 3.6076200821 27.0043015577
626 2 1.0127729669 3.6076200821 92.1237168409
627 2 1.0127729669 9.1036370613 27.0043015577
628 2 1.0127729669 9.1036370613 92.1237168409
629 2 6.5087897812 3.6076200821 27.0043015577
630 2 6.5087897812 3.6076200821 92.1237168409
631 2 6.5087897812 9.1036370613 27.0043015577
632 2 6.5087897812 9.1036370613 92.1237168409
633 2 4.6364053867 3.7607816214 5.5554064746
634 2 4.6364053867 3.7607816214 70.6748213671
635 2 4.6364053867 9.2567982708 5.5554064746
636 2 4.6364053867 9.2567982708 70.6748213671
637 2 10.1324223659 3.7607816214 5.5554064746
638 2 10.1324223659 3.7607816214 70.6748213671
639 2 10.1324223659 9.2567982708 5.5554064746
640 2 10.1324223659 9.2567982708 70.6748213671
641 2 1.8529349907 0.9214964249 20.6415428793
642 2 1.8529349907 0.9214964249 85.7609601161
643 2 1.8529349907 6.4175132393 20.6415428793
644 2 1.8529349907 6.4175132393 85.7609601161
645 2 7.348951805 0.9214964249 20.6415428793
646 2 7.348951805 0.9214964249 85.7609601161
647 2 7.348951805 6.4175132393 20.6415428793
648 2 7.348951805 6.4175132393 85.7609601161
649 2 3.6430818236 4.5745207191 20.6415428793
650 2 3.6430818236 4.5745207191 85.7609601161
651 2 3.6430818236 10.0705376983 20.6415428793
652 2 3.6430818236 10.0705376983 85.7609601161
653 2 9.1390984731 4.5745207191 20.6415428793
654 2 9.1390984731 4.5745207191 85.7609601161
655 2 9.1390984731 10.0705376983 20.6415428793
656 2 9.1390984731 10.0705376983 85.7609601161
657 2 3.6695047497 1.8529349907 4.3616894492
658 2 3.6695047497 1.8529349907 69.4811062953
659 2 3.6695047497 7.348951805 4.3616894492
660 2 3.6695047497 7.348951805 69.4811062953
661 2 9.1655217289 1.8529349907 4.3616894492
662 2 9.1655217289 1.8529349907 69.4811062953
663 2 9.1655217289 7.348951805 4.3616894492
664 2 9.1655217289 7.348951805 69.4811062953
665 2 1.8265120647 4.6009436452 11.9181647623
666 2 1.8265120647 4.6009436452 77.0375780919
667 2 1.8265120647 10.0969609541 11.9181647623
668 2 1.8265120647 10.0969609541 77.0375780919
669 2 7.3225292087 4.6009436452 11.9181647623
670 2 7.3225292087 4.6009436452 77.0375780919
671 2 7.3225292087 10.0969609541 11.9181647623
672 2 7.3225292087 10.0969609541 77.0375780919
673 2 3.6695047497 0.8950734989 11.9181647623
674 2 3.6695047497 0.8950734989 77.0375780919
675 2 3.6695047497 6.391090643 11.9181647623
676 2 3.6695047497 6.391090643 77.0375780919
677 2 9.1655217289 0.8950734989 11.9181647623
678 2 9.1655217289 0.8950734989 77.0375780919
679 2 9.1655217289 6.391090643 11.9181647623
680 2 9.1655217289 6.391090643 77.0375780919
681 2 4.6009436452 4.5745207191 28.1980185831
682 2 4.6009436452 4.5745207191 93.3174319127
683 2 4.6009436452 10.0705376983 28.1980185831
684 2 4.6009436452 10.0705376983 93.3174319127
685 2 10.0969609541 4.5745207191 28.1980185831
686 2 10.0969609541 4.5745207191 93.3174319127
687 2 10.0969609541 10.0705376983 28.1980185831
688 2 10.0969609541 10.0705376983 93.3174319127
689 2 0.8950734989 0.9214964249 28.1980185831
690 2 0.8950734989 0.9214964249 93.3174319127
691 2 0.8950734989 6.4175132393 28.1980185831
692 2 0.8950734989 6.4175132393 93.3174319127
693 2 6.391090643 0.9214964249 28.1980185831
694 2 6.391090643 0.9214964249 93.3174319127
695 2 6.391090643 6.4175132393 28.1980185831
696 2 6.391090643 6.4175132393 93.3174319127
697 2 1.8265120647 3.6430818236 4.3616894492