# Structure data of Pb (2x2x2 conventional) 

32 atoms
1 atom types

0.0 10.101067543 xlo xhi
0.0 10.101067543 ylo yhi
0.0 10.101067543 zlo zhi
0.000000    0.000000    0.000000   xy xz yz

Masses

1 207.2  # Pb

Atoms  # atomic

1 1 0.0 0.0 0.0
2 1 0.0 0.0 5.0505337715
3 1 0.0 5.0505337715 0.0
4 1 0.0 5.0505337715 5.0505337715
5 1 5.0505337715 0.0 0.0
6 1 5.0505337715 0.0 5.0505337715
7 1 5.0505337715 5.0505337715 0.0
8 1 5.0505337715 5.0505337715 5.0505337715
9 1 0.0 2.5252668857 2.5252668857
10 1 0.0 2.5252668857 7.5758006572
11 1 0.0 7.5758006572 2.5252668857
12 1 0.0 7.5758006572 7.5758006572
13 1 5.0505337715 2.5252668857 2.5252668857
14 1 5.0505337715 2.5252668857 7.5758006572
15 1 5.0505337715 7.5758006572 2.5252668857
16 1 5.0505337715 7.5758006572 7.5758006572
17 1 2.5252668857 0.0 2.5252668857
18 1 2.5252668857 0.0 7.5758006572
19 1 2.5252668857 5.0505337715 2.5252668857
20 1 2.5252668857 5.0505337715 7.5758006572
21 1 7.5758006572 0.0 2.5252668857
22 1 7.5758006572 0.0 7.5758006572
23 1 7.5758006572 5.0505337715 2.5252668857
24 1 7.5758006572 5.0505337715 7.5758006572
25 1 2.5252668857 2.5252668857 0.0
26 1 2.5252668857 2.5252668857 5.0505337715
27 1 2.5252668857 7.5758006572 0.0
28 1 2.5252668857 7.5758006572 5.0505337715
29 1 7.5758006572 2.5252668857 0.0
30 1 7.5758006572 2.5252668857 5.0505337715
31 1 7.5758006572 7.5758006572 0.0
32 1 7.5758006572 7.5758006572 5.0505337715
