# Structure data of Y (2x2x2 conventional) 

16 atoms
1 atom types

0.0 7.3179755211 xlo xhi
0.0 6.3375527055 ylo yhi
0.0 11.3319301605 zlo zhi
-3.6589877605 0.0 0.0 xy xz yz

Masses

1 88.90585  # Y

Atoms  # atomic

1 1 1.8294939315 1.0562588181 4.2494738102
2 1 1.8294939315 1.0562588181 9.9154388904
3 1 -3.6256539993e-09 4.2250352659 4.2494738102
4 1 -3.6256539993e-09 4.2250352659 9.9154388904
5 1 5.4884819116 1.0562588181 4.2494738102
6 1 5.4884819116 1.0562588181 9.9154388904
7 1 3.6589879765 4.2250352659 4.2494738102
8 1 3.6589879765 4.2250352659 9.9154388904
9 1 3.6756542254e-09 2.1125176298 1.4164912701
10 1 3.6756542254e-09 2.1125176298 7.0824563503
11 1 -1.8294939863 5.2812941726 1.4164912701
12 1 -1.8294939863 5.2812941726 7.0824563503
13 1 3.658987874 2.1125176298 1.4164912701
14 1 3.658987874 2.1125176298 7.0824563503
15 1 1.829493884 5.2812941726 1.4164912701
16 1 1.829493884 5.2812941726 7.0824563503
