# Structure data of Fe2CuS3, Space Group No.62 (2x2x2 conventional) 

192 atoms
3 atom types

0.0 12.427113533 xlo xhi
0.0 13.0710363388 ylo yhi
0.0 21.2133083344 zlo zhi
0.000000    0.000000    0.000000   xy xz yz

Masses

1 55.845  # Fe
2 63.546  # Cu
3 32.065  # S

Atoms  # atomic

1 1 2.8095155394 5.9498377871 9.6062238122
2 1 2.8095155394 5.9498377871 20.2128779794
3 1 2.8095155394 12.4853559565 9.6062238122
4 1 2.8095155394 12.4853559565 20.2128779794
5 1 9.0230719331 5.9498377871 9.6062238122
6 1 9.0230719331 5.9498377871 20.2128779794
7 1 9.0230719331 12.4853559565 9.6062238122
8 1 9.0230719331 12.4853559565 20.2128779794
9 1 5.9162939227 3.853439467 9.6062238122
10 1 5.9162939227 3.853439467 20.2128779794
11 1 5.9162939227 10.3889576364 9.6062238122
12 1 5.9162939227 10.3889576364 20.2128779794
13 1 12.1298503164 3.853439467 9.6062238122
14 1 12.1298503164 3.853439467 20.2128779794
15 1 12.1298503164 10.3889576364 9.6062238122
16 1 12.1298503164 10.3889576364 20.2128779794
17 1 0.2972627817 2.6820787024 1.0004302065
18 1 0.2972627817 2.6820787024 11.6070845222
19 1 0.2972627817 9.2175968718 1.0004302065
20 1 0.2972627817 9.2175968718 11.6070845222
21 1 6.5108192375 2.6820787024 1.0004302065
22 1 6.5108192375 2.6820787024 11.6070845222
23 1 6.5108192375 9.2175968718 1.0004302065
24 1 6.5108192375 9.2175968718 11.6070845222
25 1 0.2972627817 2.6820787024 4.3028967286
26 1 0.2972627817 2.6820787024 14.9095508958
27 1 0.2972627817 9.2175968718 4.3028967286
28 1 0.2972627817 9.2175968718 14.9095508958
29 1 6.5108192375 2.6820787024 4.3028967286
30 1 6.5108192375 2.6820787024 14.9095508958
31 1 6.5108192375 9.2175968718 4.3028967286
32 1 6.5108192375 9.2175968718 14.9095508958
33 1 5.9162939227 3.853439467 6.3037574386
34 1 5.9162939227 3.853439467 16.9104116058
35 1 5.9162939227 10.3889576364 6.3037574386
36 1 5.9162939227 10.3889576364 16.9104116058
37 1 12.1298503164 3.853439467 6.3037574386
38 1 12.1298503164 3.853439467 16.9104116058
39 1 12.1298503164 10.3889576364 6.3037574386
40 1 12.1298503164 10.3889576364 16.9104116058
41 1 3.4040412271 0.5856804738 1.0004302065
42 1 3.4040412271 0.5856804738 11.6070845222
43 1 3.4040412271 7.1211985517 1.0004302065
44 1 3.4040412271 7.1211985517 11.6070845222
45 1 9.6175983664 0.5856804738 1.0004302065
46 1 9.6175983664 0.5856804738 11.6070845222
47 1 9.6175983664 7.1211985517 1.0004302065
48 1 9.6175983664 7.1211985517 11.6070845222
49 1 2.8095155394 5.9498377871 6.3037574386
50 1 2.8095155394 5.9498377871 16.9104116058
51 1 2.8095155394 12.4853559565 6.3037574386
52 1 2.8095155394 12.4853559565 16.9104116058
53 1 9.0230719331 5.9498377871 6.3037574386
54 1 9.0230719331 5.9498377871 16.9104116058
55 1 9.0230719331 12.4853559565 6.3037574386
56 1 9.0230719331 12.4853559565 16.9104116058
57 1 3.4040412271 0.5856804738 4.3028967286
58 1 3.4040412271 0.5856804738 14.9095508958
59 1 3.4040412271 7.1211985517 4.3028967286
60 1 3.4040412271 7.1211985517 14.9095508958
61 1 9.6175983664 0.5856804738 4.3028967286
62 1 9.6175983664 0.5856804738 14.9095508958
63 1 9.6175983664 7.1211985517 4.3028967286
64 1 9.6175983664 7.1211985517 14.9095508958
65 2 0.2975237387 6.0993639465 2.6516635418
66 2 0.2975237387 6.0993639465 13.258317709
67 2 0.2975237387 12.6348821159 2.6516635418
68 2 0.2975237387 12.6348821159 13.258317709
69 2 6.5110807164 6.0993639465 2.6516635418
70 2 6.5110807164 6.0993639465 13.258317709
71 2 6.5110807164 12.6348821159 2.6516635418
72 2 6.5110807164 12.6348821159 13.258317709
73 2 2.8092546197 2.8316046657 7.9549906254
74 2 2.8092546197 2.8316046657 18.5616447926
75 2 2.8092546197 9.3671230312 7.9549906254
76 2 2.8092546197 9.3671230312 18.5616447926
77 2 9.0228111998 2.8316046657 7.9549906254
78 2 9.0228111998 2.8316046657 18.5616447926
79 2 9.0228111998 9.3671230312 7.9549906254
80 2 9.0228111998 9.3671230312 18.5616447926
81 2 5.9160331894 0.4361543275 7.9549906254
82 2 5.9160331894 0.4361543275 18.5616447926
83 2 5.9160331894 6.9716723923 7.9549906254
84 2 5.9160331894 6.9716723923 18.5616447926
85 2 12.1295895831 0.4361543275 7.9549906254
86 2 12.1295895831 0.4361543275 18.5616447926
87 2 12.1295895831 6.9716723923 7.9549906254
88 2 12.1295895831 6.9716723923 18.5616447926
89 2 3.4043019603 3.7039133076 2.6516635418
90 2 3.4043019603 3.7039133076 13.258317709
91 2 3.4043019603 10.239431477 2.6516635418
92 2 3.4043019603 10.239431477 13.258317709
93 2 9.6178590997 3.7039133076 2.6516635418
94 2 9.6178590997 3.7039133076 13.258317709
95 2 9.6178590997 10.239431477 2.6516635418
96 2 9.6178590997 10.239431477 13.258317709
97 3 3.7149239512 3.9368263394 9.750697388
98 3 3.7149239512 3.9368263394 20.3573521916
99 3 3.7149239512 10.4723448879 9.750697388
100 3 3.7149239512 10.4723448879 20.3573521916
101 3 9.9284803449 3.9368263394 9.750697388
102 3 9.9284803449 3.9368263394 20.3573521916
103 3 9.9284803449 10.4723448879 9.750697388
104 3 9.9284803449 10.4723448879 20.3573521916
105 3 5.6054111985 0.6690671501 4.4473699862
106 3 5.6054111985 0.6690671501 15.0540238352
107 3 5.6054111985 7.204585032 4.4473699862
108 3 5.6054111985 7.204585032 15.0540238352
109 3 11.8189683378 0.6690671501 4.4473699862
110 3 11.8189683378 0.6690671501 15.0540238352
111 3 11.8189683378 7.204585032 4.4473699862
112 3 11.8189683378 7.204585032 15.0540238352
113 3 3.6564420171 0.6958104905 7.9549906254
114 3 3.6564420171 0.6958104905 18.5616447926
115 3 3.6564420171 7.2313289997 7.9549906254
116 3 3.6564420171 7.2313289997 18.5616447926
117 3 9.8699987836 0.6958104905 7.9549906254
118 3 9.8699987836 0.6958104905 18.5616447926
119 3 9.8699987836 7.2313289997 7.9549906254
120 3 9.8699987836 7.2313289997 18.5616447926
121 3 2.5571147494 5.8397077181 2.6516635418
122 3 2.5571147494 5.8397077181 13.258317709
123 3 2.5571147494 12.3752255085 2.6516635418
124 3 2.5571147494 12.3752255085 13.258317709
125 3 8.7706715159 5.8397077181 2.6516635418
126 3 8.7706715159 5.8397077181 13.258317709
127 3 8.7706715159 12.3752255085 2.6516635418
128 3 8.7706715159 12.3752255085 13.258317709
129 3 0.608145655 5.8664509147 6.1592838628
130 3 0.608145655 5.8664509147 16.7659373936
131 3 0.608145655 12.401968705 6.1592838628
132 3 0.608145655 12.401968705 16.7659373936
133 3 6.8217027073 5.8664509147 6.1592838628
134 3 6.8217027073 5.8664509147 16.7659373936
135 3 6.8217027073 12.401968705 6.1592838628
136 3 6.8217027073 12.401968705 16.7659373936
137 3 2.4986328153 2.5986920261 0.8559570125
138 3 2.4986328153 2.5986920261 11.4626115828
139 3 2.4986328153 9.1342103915 0.8559570125
140 3 2.4986328153 9.1342103915 11.4626115828
141 3 8.7121899546 2.5986920261 0.8559570125
142 3 8.7121899546 2.5986920261 11.4626115828
143 3 8.7121899546 9.1342103915 0.8559570125
144 3 8.7121899546 9.1342103915 11.4626115828
145 3 2.4986328153 2.5986920261 4.4473699862
146 3 2.4986328153 2.5986920261 15.0540238352
147 3 2.4986328153 9.1342103915 4.4473699862
148 3 2.4986328153 9.1342103915 15.0540238352
149 3 8.7121899546 2.5986920261 4.4473699862
150 3 8.7121899546 2.5986920261 15.0540238352
151 3 8.7121899546 9.1342103915 4.4473699862
152 3 8.7121899546 9.1342103915 15.0540238352
153 3 3.7149239512 3.9368263394 6.1592838628
154 3 3.7149239512 3.9368263394 16.7659373936
155 3 3.7149239512 10.4723448879 6.1592838628
156 3 3.7149239512 10.4723448879 16.7659373936
157 3 9.9284803449 3.9368263394 6.1592838628
158 3 9.9284803449 3.9368263394 16.7659373936
159 3 9.9284803449 10.4723448879 6.1592838628
160 3 9.9284803449 10.4723448879 16.7659373936
161 3 0.608145655 5.8664509147 9.750697388
162 3 0.608145655 5.8664509147 20.3573521916
163 3 0.608145655 12.401968705 9.750697388
164 3 0.608145655 12.401968705 20.3573521916
165 3 6.8217027073 5.8664509147 9.750697388
166 3 6.8217027073 5.8664509147 20.3573521916
167 3 6.8217027073 12.401968705 9.750697388
168 3 6.8217027073 12.401968705 20.3573521916
169 3 5.6054111985 0.6690671501 0.8559570125
170 3 5.6054111985 0.6690671501 11.4626115828
171 3 5.6054111985 7.204585032 0.8559570125
172 3 5.6054111985 7.204585032 11.4626115828
173 3 11.8189683378 0.6690671501 0.8559570125
174 3 11.8189683378 0.6690671501 11.4626115828
175 3 11.8189683378 7.204585032 0.8559570125
176 3 11.8189683378 7.204585032 11.4626115828
177 3 0.5496636711 2.5719486334 7.9549906254
178 3 0.5496636711 2.5719486334 18.5616447926
179 3 0.5496636711 9.1074664238 7.9549906254
180 3 0.5496636711 9.1074664238 18.5616447926
181 3 6.7632204003 2.5719486334 7.9549906254
182 3 6.7632204003 2.5719486334 18.5616447926
183 3 6.7632204003 9.1074664238 7.9549906254
184 3 6.7632204003 9.1074664238 18.5616447926
185 3 5.6638931327 3.963569536 2.6516635418
186 3 5.6638931327 3.963569536 13.258317709
187 3 5.6638931327 10.4990880844 2.6516635418
188 3 5.6638931327 10.4990880844 13.258317709
189 3 11.8774498992 3.963569536 2.6516635418
190 3 11.8774498992 3.963569536 13.258317709
191 3 11.8774498992 10.4990880844 2.6516635418
192 3 11.8774498992 10.4990880844 13.258317709
