# Structure data of Ti (2x2x2 conventional) 

16 atoms
1 atom types

0.0 5.8676276207 xlo xhi
0.0 5.0815141888 ylo yhi
0.0 9.3140182495 zlo zhi
-2.933814487 0.0 0.0 xy xz yz

Masses

1 47.867  # Ti

Atoms  # atomic

1 1 1.4669068335 0.8469190586 3.4927568436
2 1 1.4669068335 0.8469190586 8.1497659683
3 1 -4.540338272e-07 3.3876762292 3.4927568436
4 1 -4.540338272e-07 3.3876762292 8.1497659683
5 1 4.4007208199 0.8469190586 3.4927568436
6 1 4.4007208199 0.8469190586 8.1497659683
7 1 2.9338135323 3.3876762292 3.4927568436
8 1 2.9338135323 3.3876762292 8.1497659683
9 1 -2.2261619259e-07 1.6938381121 1.1642522812
10 1 -2.2261619259e-07 1.6938381121 5.8212614059
11 1 -1.4669075541 4.2345953589 1.1642522812
12 1 -1.4669075541 4.2345953589 5.8212614059
13 1 2.9338136757 1.6938381121 1.1642522812
14 1 2.9338136757 1.6938381121 5.8212614059
15 1 1.4669063442 4.2345953589 1.1642522812
16 1 1.4669063442 4.2345953589 5.8212614059
