ITEM: TIMESTEP
0
ITEM: NUMBER OF ATOMS
64
ITEM: BOX BOUNDS xy xz yz pp pp pp
0.0000000000000000e+00 1.0800000000000001e+01 0.0000000000000000e+00
0.0000000000000000e+00 1.0800000000000001e+01 0.0000000000000000e+00
0.0000000000000000e+00 1.0800000000000001e+01 0.0000000000000000e+00
ITEM: ATOMS id xu yu zu fx fy fz 
1    0.040000000000000    0.000000000000000    0.000000000000000   -0.184990078210831   -0.266085177659988   -0.270861357450485 
2    0.000000000000000    0.000000000000000    5.400000000000000   -0.000792175764218   -0.000810399185866   -0.013953049667180 
3    0.000000000000000    2.700000000000000    2.700000000000000   -0.000801501795650   -0.000603369844612   -0.006000323221087 
4    0.000000000000000    2.700000000000000    8.100000000000000   -0.000305938301608    0.001055945758708    0.008100513368845 
5    0.000000000000000    5.400000000000000    0.000000000000000    0.015740972012281    0.000138654126204   -0.267659425735474 
6    0.000000000000000    5.400000000000000    5.400000000000000    0.002010614378378   -0.001126290298998   -0.012117028236389 
7    0.000000000000000    8.100000000000000    2.700000000000000   -0.001847802777775    0.005420455709100   -0.011559172533453 
8    0.000000000000000    8.100000000000000    8.100000000000000    0.001690055127256   -0.000954950111918    0.007861785590649 
9    1.350000000000000    1.350000000000000    1.350000000000000    0.010550592094660    0.010870934464037   -0.004502268973738 
10    1.350000000000000    1.350000000000000    6.750000000000000   -0.000418817449827   -0.001071555889212    0.001305662211962 
11    1.350000000000000    4.050000000000000    4.050000000000000   -0.001384616130963   -0.001427882700227    0.009668600745499 
12    1.350000000000000    4.050000000000000    9.449999999999999    0.002596803009510    0.004815682768822    0.271777033805847 
13    1.350000000000000    6.750000000000000    1.350000000000000    0.004033564589918    0.004417104180902   -0.019968509674072 
14    1.350000000000000    6.750000000000000    6.750000000000000   -0.002635902957991   -0.000287553004455    0.005856540985405 
15    1.350000000000000    9.449999999999999    4.050000000000000    0.001069912919775   -0.000210952435737    0.014144732616842 
16    1.350000000000000    9.449999999999999    9.449999999999999   -0.011127684265375   -0.007464956957847    0.260560691356659 
17    2.700000000000000    0.000000000000000    2.700000000000000    0.005361924413592   -0.003807866945863    0.001065392978489 
18    2.700000000000000    0.000000000000000    8.100000000000000   -0.000671163259540    0.003684569383040    0.015308637171984 
19    2.700000000000000    2.700000000000000    0.000000000000000    0.008373478427529    0.014444722793996   -0.269678056240082 
20    2.700000000000000    2.700000000000000    5.400000000000000   -0.000747336307541    0.000316521007335   -0.012263470329344 
21    2.700000000000000    5.400000000000000    2.700000000000000    0.000931426766329   -0.000818182248622   -0.004098427947611 
22    2.700000000000000    5.400000000000000    8.100000000000000   -0.002850127406418    0.000237633765209    0.018574142828584 
23    2.700000000000000    8.100000000000000    0.000000000000000   -0.021382814273238    0.016717044636607   -0.272218316793442 
24    2.700000000000000    8.100000000000000    5.400000000000000   -0.003425367875025    0.001777124358341   -0.011134465225041 
25    4.050000000000000    1.350000000000000    4.050000000000000   -0.002053428208455    0.001796413329430    0.012554281391203 
26    4.050000000000000    1.350000000000000    9.449999999999999    0.007278744596988    0.011457760818303    0.256942689418793 
27    4.050000000000000    4.050000000000000    1.350000000000000   -0.001436339691281    0.001670485711657   -0.008120366372168 
28    4.050000000000000    4.050000000000000    6.750000000000000    0.002938960911706    0.001159161911346    0.009627837687731 
29    4.050000000000000    6.750000000000000    4.050000000000000   -0.001129592768848   -0.003392794169486    0.013882085680962 
30    4.050000000000000    6.750000000000000    9.449999999999999   -0.001151001080871   -0.000684624304995    0.258356630802155 
31    4.050000000000000    9.449999999999999    1.350000000000000   -0.002083308761939    0.000707448692992   -0.026311917230487 
32    4.050000000000000    9.449999999999999    6.750000000000000   -0.000610917515587    0.001315948204137    0.006395132280886 
33    5.400000000000000    0.000000000000000    0.000000000000000   -0.009488797746599    0.005402275361121   -0.270749717950821 
34    5.400000000000000    0.000000000000000    5.400000000000000   -0.000505042029545    0.003157370025292   -0.013359040021896 
35    5.400000000000000    2.700000000000000    2.700000000000000   -0.002352727577090   -0.001011859276332   -0.008889381773770 
36    5.400000000000000    2.700000000000000    8.100000000000000   -0.001564982347190    0.002023823326454    0.013404837809503 
37    5.400000000000000    5.400000000000000    0.000000000000000   -0.002842762507498    0.000790121441241   -0.254160135984421 
38    5.400000000000000    5.400000000000000    5.400000000000000   -0.000954623334110    0.000348639703589   -0.011379838921130 
39    5.400000000000000    8.100000000000000    2.700000000000000   -0.001294210087508    0.002212077844888   -0.001993911340833 
40    5.400000000000000    8.100000000000000    8.100000000000000   -0.000157799237058   -0.001280359341763    0.023254411295056 
41    6.750000000000000    1.350000000000000    1.350000000000000    0.002233417006209    0.003985955845565   -0.021783612668514 
42    6.750000000000000    1.350000000000000    6.750000000000000   -0.000164734970895   -0.001030824263580   -0.002677862532437 
43    6.750000000000000    4.050000000000000    4.050000000000000   -0.000441566458903   -0.000854576705024    0.010825604200363 
44    6.750000000000000    4.050000000000000    9.449999999999999    0.008200804702938    0.013472016900778    0.261497050523758 
45    6.750000000000000    6.750000000000000    1.350000000000000    0.004106186330318    0.002145762322471   -0.020811997354031 
46    6.750000000000000    6.750000000000000    6.750000000000000   -0.000022594387701    0.000655503186863    0.008635272271931 
47    6.750000000000000    9.449999999999999    4.050000000000000   -0.001658723456785    0.000113584086648    0.014645376242697 
48    6.750000000000000    9.449999999999999    9.449999999999999    0.007363622542471    0.001164114451967    0.256953299045563 
49    8.100000000000000    0.000000000000000    2.700000000000000    0.004054584540427   -0.000334380776621   -0.005634150002152 
50    8.100000000000000    0.000000000000000    8.100000000000000    0.002281937748194   -0.002095472766086    0.012675308622420 
51    8.100000000000000    2.700000000000000    0.000000000000000   -0.015042792074382    0.025055414065719   -0.268315583467484 
52    8.100000000000000    2.700000000000000    5.400000000000000   -0.001112164347433    0.001303213764913   -0.016441529616714 
53    8.100000000000000    5.400000000000000    2.700000000000000   -0.000711850938387    0.003990169148892   -0.001798188313842 
54    8.100000000000000    5.400000000000000    8.100000000000000    0.003346855286509   -0.000511916936375    0.007433742750436 
55    8.100000000000000    8.100000000000000    0.000000000000000    0.010852364823222    0.018404379487038   -0.255333393812180 
56    8.100000000000000    8.100000000000000    5.400000000000000   -0.001543946331367   -0.000735339999665   -0.010940581560135 
57    9.449999999999999    1.350000000000000    4.050000000000000   -0.000561503227800   -0.001833569724113    0.013922093436122 
58    9.449999999999999    1.350000000000000    9.449999999999999   -0.013125291094184   -0.003080099821091    0.264322608709335 
59    9.449999999999999    4.050000000000000    1.350000000000000   -0.002796813147143   -0.000805265968665   -0.020381309092045 
60    9.449999999999999    4.050000000000000    6.750000000000000   -0.001156493439339    0.002081166254357    0.003528182627633 
61    9.449999999999999    6.750000000000000    4.050000000000000   -0.000859858177137    0.000511662627105    0.013452610000968 
62    9.449999999999999    6.750000000000000    9.449999999999999   -0.015612136572599   -0.001974774291739    0.270074665546417 
63    9.449999999999999    9.449999999999999    1.350000000000000    0.040560372173786    0.036493435502052   -0.107493579387665 
64    9.449999999999999    9.449999999999999    6.750000000000000   -0.001631166785955    0.000690826214850    0.005668349564075 
