ITEM: TIMESTEP
0
ITEM: NUMBER OF ATOMS
64
ITEM: BOX BOUNDS xy xz yz pp pp pp
0.0000000000000000e+00 1.0800000000000001e+01 0.0000000000000000e+00
0.0000000000000000e+00 1.0800000000000001e+01 0.0000000000000000e+00
0.0000000000000000e+00 1.0800000000000001e+01 0.0000000000000000e+00
ITEM: ATOMS id xu yu zu fx fy fz 
1   -0.039999999999999    0.000000000000000    0.000000000000000    0.068109370768070    0.184037923812866   -0.362061709165573 
2    0.000000000000000    0.000000000000000    5.400000000000000    0.000760352355428   -0.000618549180217   -0.013717913068831 
3    0.000000000000000    2.700000000000000    2.700000000000000    0.087341308593750   -0.100092709064484   -0.089531764388084 
4    0.000000000000000    2.700000000000000    8.100000000000000    0.000660915742628    0.003397932974622    0.012880147434771 
5    0.000000000000000    5.400000000000000    0.000000000000000    0.008635838516057   -0.004774645436555   -0.262851983308792 
6    0.000000000000000    5.400000000000000    5.400000000000000   -0.007510716561228    0.000150246371049   -0.017410185188055 
7    0.000000000000000    8.100000000000000    2.700000000000000   -0.001805152511224   -0.002654350595549   -0.004887624178082 
8    0.000000000000000    8.100000000000000    8.100000000000000    0.001673058141023    0.000614435062744    0.021904477849603 
9    1.350000000000000    1.310000000000000    1.350000000000000   -0.080661684274673    0.276991069316864   -0.197975844144821 
10    1.350000000000000    1.350000000000000    6.750000000000000    0.000658912875224   -0.001332881278358    0.000455075496575 
11    1.350000000000000    4.050000000000000    4.050000000000000    0.001818621996790   -0.001621419913135    0.008533303625882 
12    1.350000000000000    4.050000000000000    9.449999999999999    0.019851936027408    0.011105224490166    0.262485414743423 
13    1.350000000000000    6.750000000000000    1.350000000000000   -0.000942759157624    0.000120270677144   -0.019758738577366 
14    1.350000000000000    6.750000000000000    6.750000000000000    0.003937449306250   -0.001292012981139    0.006648731883615 
15    1.350000000000000    9.449999999999999    4.050000000000000    0.003641780000180   -0.002748999977484    0.018682641908526 
16    1.350000000000000    9.449999999999999    9.449999999999999    0.001334647997282    0.004216777160764    0.260037183761597 
17    2.700000000000000    0.000000000000000    2.700000000000000    0.095981679856777   -0.087631627917290    0.075648613274097 
18    2.700000000000000    0.000000000000000    8.100000000000000    0.001251798355952   -0.001441719592549    0.017903588712215 
19    2.700000000000000    2.700000000000000    0.000000000000000   -0.108630210161209   -0.089123420417309   -0.180496156215668 
20    2.700000000000000    2.700000000000000    5.400000000000000    0.002309723058715   -0.000214229745325   -0.014831088483334 
21    2.700000000000000    5.400000000000000    2.700000000000000   -0.002168664941564   -0.002728246618062   -0.001309356885031 
22    2.700000000000000    5.400000000000000    8.100000000000000    0.000002301266477   -0.001950134639628    0.010021386668086 
23    2.700000000000000    8.100000000000000    0.000000000000000   -0.003592137014493   -0.013293314725161   -0.260461390018463 
24    2.700000000000000    8.100000000000000    5.400000000000000   -0.003950758371502    0.000656868098304   -0.010860695503652 
25    4.050000000000000    1.350000000000000    4.050000000000000   -0.001799768535420    0.001111411256716    0.013425638899207 
26    4.050000000000000    1.350000000000000    9.449999999999999   -0.001513052615337   -0.007952260784805    0.265500724315643 
27    4.050000000000000    4.050000000000000    1.350000000000000   -0.000590033247136    0.000751758809201   -0.022752596065402 
28    4.050000000000000    4.050000000000000    6.750000000000000    0.002429091371596   -0.000677106261719    0.003898666938767 
29    4.050000000000000    6.750000000000000    4.050000000000000   -0.000987124978565    0.001465610344894    0.013692826032639 
30    4.050000000000000    6.750000000000000    9.449999999999999    0.000540809996892    0.011567078530788    0.266370356082916 
31    4.050000000000000    9.449999999999999    1.350000000000000    0.002509618410841    0.003953529521823   -0.014367684721947 
32    4.050000000000000    9.449999999999999    6.750000000000000   -0.003707593539730   -0.001750938128680    0.006274916231632 
33    5.400000000000000    0.000000000000000    0.000000000000000    0.015626175329089   -0.005049895960838   -0.245505020022392 
34    5.400000000000000    0.000000000000000    5.400000000000000    0.000322769221384    0.004369433037937   -0.011081380769610 
35    5.400000000000000    2.700000000000000    2.700000000000000   -0.000851708056871    0.001756960293278   -0.000427100225352 
36    5.400000000000000    2.700000000000000    8.100000000000000    0.000499825226143   -0.000136355680297    0.013634826056659 
37    5.400000000000000    5.400000000000000    0.000000000000000   -0.000149952058564   -0.011698558926582   -0.252133190631866 
38    5.400000000000000    5.400000000000000    5.400000000000000    0.002802841365337    0.000731375301257   -0.011311000213027 
39    5.400000000000000    8.100000000000000    2.700000000000000    0.002961740130559   -0.001015198067762   -0.005628096405417 
40    5.400000000000000    8.100000000000000    8.100000000000000   -0.000221592039452    0.002092476934195    0.019061641767621 
41    6.750000000000000    1.350000000000000    1.350000000000000    0.004454463254660    0.003213033312932   -0.012362987734377 
42    6.750000000000000    1.350000000000000    6.750000000000000    0.001017509610392    0.000023416927434    0.001269930857234 
43    6.750000000000000    4.050000000000000    4.050000000000000   -0.000763664080296   -0.001466177869588    0.010996900498867 
44    6.750000000000000    4.050000000000000    9.449999999999999    0.009123899973929   -0.008680878207088    0.261558413505554 
45    6.750000000000000    6.750000000000000    1.350000000000000    0.000606118934229   -0.002852908335626   -0.025432920083404 
46    6.750000000000000    6.750000000000000    6.750000000000000    0.002596483100206    0.002056604018435   -0.001428462681361 
47    6.750000000000000    9.449999999999999    4.050000000000000   -0.002084704348817   -0.002000801730901    0.014614058658481 
48    6.750000000000000    9.449999999999999    9.449999999999999   -0.009135381318629    0.009543233551085    0.260256111621857 
49    8.100000000000000    0.000000000000000    2.700000000000000   -0.001506753964350    0.003448746865615    0.003115977160633 
50    8.100000000000000    0.000000000000000    8.100000000000000    0.000802860595286   -0.000973054964561    0.009398883208632 
51    8.100000000000000    2.700000000000000    0.000000000000000   -0.003091701539233   -0.020502144470811   -0.261633753776550 
52    8.100000000000000    2.700000000000000    5.400000000000000    0.003480326617137    0.001765508088283   -0.015558823943138 
53    8.100000000000000    5.400000000000000    2.700000000000000   -0.001665965304710    0.001279118587263   -0.003852492198348 
54    8.100000000000000    5.400000000000000    8.100000000000000   -0.000237430751440   -0.002262534108013    0.018257176503539 
55    8.100000000000000    8.100000000000000    0.000000000000000   -0.015040733851492    0.000343684107065   -0.255715280771255 
56    8.100000000000000    8.100000000000000    5.400000000000000   -0.000380356272217   -0.001214932650328   -0.016120091080666 
57    9.449999999999999    1.350000000000000    4.050000000000000   -0.002554005477577    0.004067983478308    0.015926752239466 
58    9.449999999999999    1.350000000000000    9.449999999999999   -0.002107898704708   -0.005467208102345    0.253442108631134 
59    9.449999999999999    4.050000000000000    1.350000000000000    0.001117625855841    0.003112999256700   -0.020497949793935 
60    9.449999999999999    4.050000000000000    6.750000000000000   -0.002252206904814   -0.000586288049817    0.001778458361514 
61    9.449999999999999    6.750000000000000    4.050000000000000   -0.000007752791134    0.001048746635206    0.014023479074240 
62    9.449999999999999    6.750000000000000    9.449999999999999    0.001943555544131    0.010063980706036    0.265299707651138 
63    9.449999999999999    9.449999999999999    1.350000000000000   -0.013456732034683   -0.017891578376293   -0.000238489970798 
64    9.449999999999999    9.449999999999999    6.750000000000000   -0.000508254743181   -0.000350559450453   -0.000029962580811 
