ITEM: TIMESTEP
0
ITEM: NUMBER OF ATOMS
64
ITEM: BOX BOUNDS xy xz yz pp pp pp
0.0000000000000000e+00 1.0800000000000001e+01 0.0000000000000000e+00
0.0000000000000000e+00 1.0800000000000001e+01 0.0000000000000000e+00
0.0000000000000000e+00 1.0800000000000001e+01 0.0000000000000000e+00
ITEM: ATOMS id xu yu zu fx fy fz 
1    0.040000000000000    0.000000000000000    0.000000000000000   -0.181845873594284   -0.270666956901550   -0.291902393102646 
2    0.000000000000000    0.000000000000000    5.400000000000000   -0.000542075256817   -0.002029496245086   -0.018326092511415 
3    0.000000000000000    2.700000000000000    2.700000000000000    0.001165183493868    0.002232148312032    0.004130485467613 
4    0.000000000000000    2.700000000000000    8.100000000000000   -0.000317601923598   -0.000221731068450    0.006498004775494 
5    0.000000000000000    5.400000000000000    0.000000000000000    0.004030452109873   -0.005949840880930   -0.258774608373642 
6    0.000000000000000    5.400000000000000    5.400000000000000    0.003220424754545    0.002303051529452   -0.013493692502379 
7    0.000000000000000    8.100000000000000    2.700000000000000    0.001134387799539    0.002372679766268   -0.006618889048696 
8    0.000000000000000    8.100000000000000    8.100000000000000   -0.000266945629846   -0.000059410416725    0.012932520359755 
9    1.350000000000000    1.350000000000000    1.350000000000000   -0.002101442776620    0.131447315216064   -0.072672739624977 
10    1.350000000000000    1.350000000000000    6.750000000000000   -0.000694143236615   -0.002287337789312    0.005087812431157 
11    1.350000000000000    4.050000000000000    4.050000000000000   -0.002945757471025   -0.001820077770390    0.013512412086129 
12    1.350000000000000    4.050000000000000    9.449999999999999   -0.004491089843214    0.008811510168016    0.266517281532288 
13    1.350000000000000    6.750000000000000    1.350000000000000    0.001073847291991    0.000507570686750   -0.022747101262212 
14    1.350000000000000    6.750000000000000    6.750000000000000    0.001741129672155    0.004445245489478    0.003502372885123 
15    1.350000000000000    9.449999999999999    4.050000000000000    0.069671347737312    0.078751519322395   -0.083235122263432 
16    1.350000000000000    9.449999999999999    9.449999999999999   -0.002310520736501   -0.008981861174107    0.273216217756271 
17    2.700000000000000    0.000000000000000    2.660000000000000    0.012726945802569   -0.002443965757266    0.450522780418396 
18    2.700000000000000    0.000000000000000    8.100000000000000    0.004004210699350   -0.001275251037441    0.011820429004729 
19    2.700000000000000    2.700000000000000    0.000000000000000    0.006824074313045    0.016637504100800   -0.276634126901627 
20    2.700000000000000    2.700000000000000    5.400000000000000   -0.003064035903662   -0.003583097830415   -0.020995045080781 
21    2.700000000000000    5.400000000000000    2.700000000000000    0.000940228695981   -0.002234578365460   -0.002924361964688 
22    2.700000000000000    5.400000000000000    8.100000000000000   -0.000570195959881    0.001629783422686    0.004739525727928 
23    2.700000000000000    8.100000000000000    0.000000000000000   -0.014268317259848    0.019209457561374   -0.270894169807434 
24    2.700000000000000    8.100000000000000    5.400000000000000    0.003180474275723    0.004826590418816   -0.019118223339319 
25    4.050000000000000    1.350000000000000    4.050000000000000   -0.077061392366886   -0.077212564647198   -0.073015734553337 
26    4.050000000000000    1.350000000000000    9.449999999999999    0.007824058644474   -0.002774990862235    0.268636584281921 
27    4.050000000000000    4.050000000000000    1.350000000000000    0.001393660437316    0.002721552504227   -0.012153814546764 
28    4.050000000000000    4.050000000000000    6.750000000000000   -0.001865141908638   -0.002598925493658    0.004876656457782 
29    4.050000000000000    6.750000000000000    4.050000000000000   -0.002189379651099   -0.003785645822063    0.016305310651660 
30    4.050000000000000    6.750000000000000    9.449999999999999    0.008365580812097   -0.003310366300866    0.268541097640991 
31    4.050000000000000    9.449999999999999    1.350000000000000    0.034449923783541   -0.093686982989311   -0.169266700744629 
32    4.050000000000000    9.449999999999999    6.750000000000000   -0.001984672388062    0.002367257373407    0.005162104498595 
33    5.400000000000000    0.000000000000000    0.000000000000000   -0.001393341575749   -0.011917378753424   -0.269787102937698 
34    5.400000000000000    0.000000000000000    5.400000000000000   -0.004694345407188    0.004821791313589   -0.022356986999512 
35    5.400000000000000    2.700000000000000    2.700000000000000   -0.001570496358909    0.002577918116003    0.003471423406154 
36    5.400000000000000    2.700000000000000    8.100000000000000    0.000755267334171   -0.001790610607713    0.007823936641216 
37    5.400000000000000    5.400000000000000    0.000000000000000   -0.012063099071383    0.017006915062666   -0.260990560054779 
38    5.400000000000000    5.400000000000000    5.400000000000000    0.001301992451772    0.002332392847165   -0.012617500498891 
39    5.400000000000000    8.100000000000000    2.700000000000000   -0.000097748968983   -0.000728789542336    0.001703219837509 
40    5.400000000000000    8.100000000000000    8.100000000000000   -0.000286330207018    0.002016994170845    0.011612462811172 
41    6.750000000000000    1.350000000000000    1.350000000000000    0.000027258396585   -0.004428340122104   -0.007739349734038 
42    6.750000000000000    1.350000000000000    6.750000000000000   -0.001322044525295   -0.005853013601154    0.004807589109987 
43    6.750000000000000    4.050000000000000    4.050000000000000   -0.000149624203914    0.000101730809547    0.009455593302846 
44    6.750000000000000    4.050000000000000    9.449999999999999    0.009605570696294    0.006830378901213    0.249819457530975 
45    6.750000000000000    6.750000000000000    1.350000000000000   -0.001362460199744   -0.000546121678781   -0.014688276685774 
46    6.750000000000000    6.750000000000000    6.750000000000000    0.001542703830637   -0.000828351243399   -0.000010523292985 
47    6.750000000000000    9.449999999999999    4.050000000000000   -0.002230361336842    0.000113078960567    0.015430144965649 
48    6.750000000000000    9.449999999999999    9.449999999999999   -0.016073904931545   -0.006085353437811    0.263011991977692 
49    8.100000000000000    0.000000000000000    2.700000000000000    0.002967271022499   -0.003302725497633   -0.006900294218212 
50    8.100000000000000    0.000000000000000    8.100000000000000   -0.004095214419067    0.004357145167887    0.016352647915483 
51    8.100000000000000    2.700000000000000    0.000000000000000   -0.015014397911727    0.023584449663758   -0.272220224142075 
52    8.100000000000000    2.700000000000000    5.400000000000000    0.001312395441346   -0.000191046448890   -0.017622133716941 
53    8.100000000000000    5.400000000000000    2.700000000000000    0.000161078030942    0.000007959459253   -0.005623155273497 
54    8.100000000000000    5.400000000000000    8.100000000000000   -0.000288459850708   -0.000961006211583    0.019851166754961 
55    8.100000000000000    8.100000000000000    0.000000000000000   -0.001203766209073    0.018728310242295   -0.268437653779984 
56    8.100000000000000    8.100000000000000    5.400000000000000    0.000769021455199    0.000163315125974   -0.014647796750069 
57    9.449999999999999    1.350000000000000    4.050000000000000    0.001219044905156    0.003191981930286    0.015675837174058 
58    9.449999999999999    1.350000000000000    9.449999999999999    0.004410878755152    0.008809028193355    0.266735106706619 
59    9.449999999999999    4.050000000000000    1.350000000000000   -0.000069696434366   -0.002036582212895   -0.012600540183485 
60    9.449999999999999    4.050000000000000    6.750000000000000   -0.001456860220060    0.001431415323168    0.004107618238777 
61    9.449999999999999    6.750000000000000    4.050000000000000    0.001946642412804   -0.002908642170951    0.009359584189951 
62    9.449999999999999    6.750000000000000    9.449999999999999   -0.006038396153599   -0.005848444998264    0.264102339744568 
63    9.449999999999999    9.449999999999999    1.350000000000000    0.034367751330137    0.040887098759413   -0.129787966609001 
64    9.449999999999999    9.449999999999999    6.750000000000000    0.003344383789226    0.005963674280792    0.008904882706702 
