ITEM: TIMESTEP
0
ITEM: NUMBER OF ATOMS
64
ITEM: BOX BOUNDS xy xz yz pp pp pp
0.0000000000000000e+00 1.0800000000000001e+01 0.0000000000000000e+00
0.0000000000000000e+00 1.0800000000000001e+01 0.0000000000000000e+00
0.0000000000000000e+00 1.0800000000000001e+01 0.0000000000000000e+00
ITEM: ATOMS id xu yu zu fx fy fz 
1    0.040000000000000    0.000000000000000    0.000000000000000   -0.318776607513428   -0.368463218212128   -0.368928581476212 
2    0.000000000000000    0.000000000000000    5.400000000000000   -0.002751949476078   -0.000250888988376   -0.011932875961065 
3    0.000000000000000    2.700000000000000    2.700000000000000    0.071722723543644   -0.076622813940048   -0.078430309891701 
4    0.000000000000000    2.700000000000000    8.100000000000000    0.000389245600672   -0.000434004294220    0.007327158004045 
5    0.000000000000000    5.400000000000000    0.000000000000000   -0.002947296947241   -0.002233490580693   -0.269370377063751 
6    0.000000000000000    5.400000000000000    5.400000000000000    0.000094074152003   -0.000150873587700   -0.013027165085077 
7    0.000000000000000    8.100000000000000    2.700000000000000   -0.001776292570867    0.002860274864361   -0.009496401995420 
8    0.000000000000000    8.100000000000000    8.100000000000000    0.001231538830325    0.002859183121473    0.007865154184401 
9    1.350000000000000    1.310000000000000    1.350000000000000    0.085061684250832    0.487008810043335    0.020431412383914 
10    1.350000000000000    1.350000000000000    6.750000000000000    0.002305426634848   -0.001153226243332    0.004199788440019 
11    1.350000000000000    4.050000000000000    4.050000000000000   -0.000119000789709   -0.000178439790034    0.006474124267697 
12    1.350000000000000    4.050000000000000    9.449999999999999    0.004493935965002    0.012540003284812    0.259039074182510 
13    1.350000000000000    6.750000000000000    1.350000000000000    0.001252081478015    0.001075456151739   -0.016603814437985 
14    1.350000000000000    6.750000000000000    6.750000000000000   -0.000920244259760    0.000217033826630    0.007468578405678 
15    1.350000000000000    9.449999999999999    4.050000000000000    0.001821511308663   -0.006167609244585    0.020729513838887 
16    1.350000000000000    9.449999999999999    9.449999999999999   -0.004101679194719    0.010970993898809    0.254800558090210 
17    2.700000000000000    0.000000000000000    2.700000000000000    0.110600508749485   -0.101498261094093    0.092044904828072 
18    2.700000000000000    0.000000000000000    8.100000000000000   -0.004210634157062   -0.001777053112164    0.027012795209885 
19    2.700000000000000    2.700000000000000    0.000000000000000   -0.100575476884842   -0.067599706351757   -0.183937087655067 
20    2.700000000000000    2.700000000000000    5.400000000000000    0.001757314312272    0.001166393631138   -0.014103017747402 
21    2.700000000000000    5.400000000000000    2.700000000000000    0.000202950643143   -0.000449991843197   -0.003667897544801 
22    2.700000000000000    5.400000000000000    8.100000000000000   -0.004752852488309   -0.003732237499207    0.019399108365178 
23    2.700000000000000    8.100000000000000    0.000000000000000   -0.014414476230741    0.010787606239319   -0.252090990543365 
24    2.700000000000000    8.100000000000000    5.400000000000000   -0.004659046418965   -0.002511966275051   -0.009372251108289 
25    4.050000000000000    1.350000000000000    4.050000000000000   -0.002286973875016    0.000927509623580    0.016251806169748 
26    4.050000000000000    1.350000000000000    9.449999999999999    0.004149382933974   -0.001867337734438    0.248073354363441 
27    4.050000000000000    4.050000000000000    1.350000000000000    0.002195277018473    0.000692471454386   -0.003520647995174 
28    4.050000000000000    4.050000000000000    6.750000000000000   -0.001982283312827    0.000823521288112    0.005414193030447 
29    4.050000000000000    6.750000000000000    4.050000000000000    0.000497454311699    0.001064994139597    0.010823448188603 
30    4.050000000000000    6.750000000000000    9.449999999999999    0.007251574192196    0.007777284365147    0.261276066303253 
31    4.050000000000000    9.449999999999999    1.350000000000000   -0.003645807504654   -0.003477020654827   -0.018275147303939 
32    4.050000000000000    9.449999999999999    6.750000000000000   -0.000092557842436   -0.002830928890035    0.006658555474132 
33    5.400000000000000    0.000000000000000    0.000000000000000   -0.004842687863857   -0.006441650912166   -0.262448787689209 
34    5.400000000000000    0.000000000000000    5.400000000000000   -0.000583642104175   -0.001442150794901   -0.012756502255797 
35    5.400000000000000    2.700000000000000    2.700000000000000    0.000021610843760   -0.000313168915454   -0.006460345815867 
36    5.400000000000000    2.700000000000000    8.100000000000000   -0.003026729682460   -0.004722265992314    0.025403598323464 
37    5.400000000000000    5.400000000000000    0.000000000000000   -0.014111234806478    0.007889753207564   -0.256109893321991 
38    5.400000000000000    5.400000000000000    5.400000000000000   -0.000097684365755   -0.001138927065767   -0.014708071015775 
39    5.400000000000000    8.100000000000000    2.700000000000000    0.002180093899369   -0.000847591261845   -0.003291997825727 
40    5.400000000000000    8.100000000000000    8.100000000000000   -0.004253408405930   -0.000161063886480    0.022559218108654 
41    6.750000000000000    1.350000000000000    1.350000000000000   -0.000874132849276   -0.003336825640872   -0.007530014961958 
42    6.750000000000000    1.350000000000000    6.750000000000000    0.001835812116042   -0.001465924782678    0.001237950753421 
43    6.750000000000000    4.050000000000000    4.050000000000000    0.000888400129043   -0.003374518360943    0.011552425101399 
44    6.750000000000000    4.050000000000000    9.449999999999999    0.011640910059214   -0.000634818803519    0.263519942760468 
45    6.750000000000000    6.750000000000000    1.350000000000000   -0.002500055823475    0.003219716250896   -0.018788957968354 
46    6.750000000000000    6.750000000000000    6.750000000000000    0.003923783544451    0.001060721231624    0.005873060785234 
47    6.750000000000000    9.449999999999999    4.050000000000000    0.000362148013664    0.001117908512242    0.012436621822417 
48    6.750000000000000    9.449999999999999    9.449999999999999    0.001629918231629   -0.002667072927579    0.260149061679840 
49    8.100000000000000    0.000000000000000    2.700000000000000    0.003826533677056   -0.002380203222856   -0.008495810441673 
50    8.100000000000000    0.000000000000000    8.100000000000000    0.000521611014847   -0.003398414701223    0.018597032874823 
51    8.100000000000000    2.700000000000000    0.000000000000000   -0.036498509347439    0.020179040730000   -0.274271398782730 
52    8.100000000000000    2.700000000000000    5.400000000000000    0.003076098859310    0.005238584708422   -0.013270983472466 
53    8.100000000000000    5.400000000000000    2.700000000000000   -0.003037656191736   -0.003842698177323   -0.007293954025954 
54    8.100000000000000    5.400000000000000    8.100000000000000   -0.004398521501571   -0.001086565782316    0.020241031423211 
55    8.100000000000000    8.100000000000000    0.000000000000000    0.002978194504976    0.010990524664521   -0.269436448812485 
56    8.100000000000000    8.100000000000000    5.400000000000000   -0.002054002834484   -0.000278222782072   -0.012446068227291 
57    9.449999999999999    1.350000000000000    4.050000000000000    0.002605980262160    0.001740316627547    0.014098200015724 
58    9.449999999999999    1.350000000000000    9.449999999999999   -0.002816454274580    0.008469469845295    0.268380463123322 
59    9.449999999999999    4.050000000000000    1.350000000000000    0.001768408576027   -0.001458257087506   -0.015091939829290 
60    9.449999999999999    4.050000000000000    6.750000000000000    0.001072110841051    0.003355384804308    0.000668573076837 
61    9.449999999999999    6.750000000000000    4.050000000000000   -0.003087309189141   -0.001258883508854    0.012179992161691 
62    9.449999999999999    6.750000000000000    9.449999999999999    0.003454701043665    0.004559290595353    0.269650101661682 
63    9.449999999999999    9.449999999999999    1.350000000000000    0.028846848756075    0.035586975514889   -0.092575639486313 
64    9.449999999999999    9.449999999999999    6.750000000000000    0.000117821313324    0.001681171590462    0.006062854081392 
