ITEM: TIMESTEP
0
ITEM: NUMBER OF ATOMS
64
ITEM: BOX BOUNDS xy xz yz pp pp pp
0.0000000000000000e+00 1.0800000000000001e+01 0.0000000000000000e+00
0.0000000000000000e+00 1.0800000000000001e+01 0.0000000000000000e+00
0.0000000000000000e+00 1.0800000000000001e+01 0.0000000000000000e+00
ITEM: ATOMS id xu yu zu fx fy fz 
1   -0.039999999999999    0.000000000000000    0.000000000000000    0.173422291874886    0.272290050983429   -0.267990708351135 
2    0.000000000000000    0.000000000000000    5.400000000000000   -0.005701909307390   -0.000043752130296   -0.011321906000376 
3    0.000000000000000    2.700000000000000    2.700000000000000    0.001369466655888   -0.000687610299792   -0.016009798273444 
4    0.000000000000000    2.700000000000000    8.100000000000000   -0.000873267417774   -0.000639555102680    0.020145501941442 
5    0.000000000000000    5.400000000000000    0.000000000000000   -0.004966907203197   -0.007472069468349   -0.276738256216049 
6    0.000000000000000    5.400000000000000    5.400000000000000   -0.002788109239191   -0.001260039047338   -0.015106208622456 
7    0.000000000000000    8.100000000000000    2.700000000000000   -0.000288493116386   -0.002338317921385   -0.001574106747285 
8    0.000000000000000    8.100000000000000    8.100000000000000   -0.000730074825697    0.002654334530234    0.005002649500966 
9    1.350000000000000    1.350000000000000    1.350000000000000   -0.002326532034203   -0.082487344741821   -0.045287176966667 
10    1.350000000000000    1.350000000000000    6.750000000000000    0.000269586889772   -0.004580507986248    0.003102334681898 
11    1.350000000000000    4.050000000000000    4.050000000000000    0.003619632683694    0.001170239411294    0.013148407451808 
12    1.350000000000000    4.050000000000000    9.449999999999999    0.004745121113956    0.002993586938828    0.252163916826248 
13    1.350000000000000    6.750000000000000    1.350000000000000    0.001990086631849   -0.000906799279619   -0.008663759566844 
14    1.350000000000000    6.750000000000000    6.750000000000000    0.007347885053605   -0.000149090265040    0.002683641854674 
15    1.350000000000000    9.449999999999999    4.050000000000000   -0.087603457272053   -0.097499266266823    0.143289685249329 
16    1.350000000000000    9.449999999999999    9.449999999999999   -0.006957661826164    0.002606780268252    0.262351781129837 
17    2.700000000000000    0.000000000000000    2.740000000000000   -0.010967697948217    0.011159177869558   -0.514183402061462 
18    2.700000000000000    0.000000000000000    8.100000000000000    0.001619507675059   -0.001597517752089    0.010958681814373 
19    2.700000000000000    2.700000000000000    0.000000000000000   -0.004406092222780   -0.009506003931165   -0.259551316499710 
20    2.700000000000000    2.700000000000000    5.400000000000000    0.004577744286507    0.001010551699437   -0.014792816713452 
21    2.700000000000000    5.400000000000000    2.700000000000000    0.003131060395390    0.000308183574816   -0.005494642537087 
22    2.700000000000000    5.400000000000000    8.100000000000000   -0.004391372669488   -0.001501556020230    0.016529435291886 
23    2.700000000000000    8.100000000000000    0.000000000000000    0.016178645193577   -0.009745059534907   -0.263640999794006 
24    2.700000000000000    8.100000000000000    5.400000000000000    0.000602963147685   -0.002870626281947   -0.011802142485976 
25    4.050000000000000    1.350000000000000    4.050000000000000    0.080750904977322    0.094173617660999    0.146134197711945 
26    4.050000000000000    1.350000000000000    9.449999999999999    0.001643894589506   -0.007765300106257    0.255622625350952 
27    4.050000000000000    4.050000000000000    1.350000000000000   -0.000969743297901   -0.000007001377526   -0.009855998679996 
28    4.050000000000000    4.050000000000000    6.750000000000000   -0.004561455454677    0.001821502926759    0.011671527288854 
29    4.050000000000000    6.750000000000000    4.050000000000000    0.000432348984759    0.000405748549383    0.015192076563835 
30    4.050000000000000    6.750000000000000    9.449999999999999    0.002777211600915   -0.001206815475598    0.261714100837708 
31    4.050000000000000    9.449999999999999    1.350000000000000   -0.015013066120446    0.013271460309625   -0.004220900125802 
32    4.050000000000000    9.449999999999999    6.750000000000000   -0.001986735034734   -0.000327103218297   -0.000241782719968 
33    5.400000000000000    0.000000000000000    0.000000000000000   -0.003601795528084   -0.004900795873255   -0.265681773424149 
34    5.400000000000000    0.000000000000000    5.400000000000000    0.003702892456204   -0.001452972763218   -0.015365601517260 
35    5.400000000000000    2.700000000000000    2.700000000000000   -0.003020557342097   -0.003614537883550   -0.012743155471981 
36    5.400000000000000    2.700000000000000    8.100000000000000   -0.002097293501720    0.001844849903136    0.013881597667933 
37    5.400000000000000    5.400000000000000    0.000000000000000    0.002651680260897   -0.005313557572663   -0.247433334589005 
38    5.400000000000000    5.400000000000000    5.400000000000000   -0.000155686939252    0.001171828946099   -0.014222929254174 
39    5.400000000000000    8.100000000000000    2.700000000000000    0.003350425977260   -0.004307884257287   -0.014237532392144 
40    5.400000000000000    8.100000000000000    8.100000000000000    0.000756244058721   -0.001222723978572    0.008772493340075 
41    6.750000000000000    1.350000000000000    1.350000000000000    0.001247513573617    0.000958295830060   -0.038718756288290 
42    6.750000000000000    1.350000000000000    6.750000000000000    0.002659010235220   -0.001263613696210    0.009047423489392 
43    6.750000000000000    4.050000000000000    4.050000000000000   -0.001871286192909   -0.002908040303737    0.013801131397486 
44    6.750000000000000    4.050000000000000    9.449999999999999   -0.007528600748628   -0.002960571320727    0.265380501747131 
45    6.750000000000000    6.750000000000000    1.350000000000000   -0.000485977681819   -0.000173173320945   -0.003507460234687 
46    6.750000000000000    6.750000000000000    6.750000000000000   -0.000921733968426   -0.001438323291950    0.006247972603887 
47    6.750000000000000    9.449999999999999    4.050000000000000   -0.001427658135071    0.003548526437953    0.017719054594636 
48    6.750000000000000    9.449999999999999    9.449999999999999    0.001776583143510   -0.016379760578275    0.267759352922440 
49    8.100000000000000    0.000000000000000    2.700000000000000   -0.002506426069885    0.001705982140265   -0.003656484419480 
50    8.100000000000000    0.000000000000000    8.100000000000000    0.004025366157293    0.000846729381010    0.015907170251012 
51    8.100000000000000    2.700000000000000    0.000000000000000    0.019007517024875   -0.012581235729158   -0.245615288615227 
52    8.100000000000000    2.700000000000000    5.400000000000000    0.001665917108767   -0.000618419377133   -0.012467361055315 
53    8.100000000000000    5.400000000000000    2.700000000000000   -0.000588829512708    0.000073905110185   -0.001316947746091 
54    8.100000000000000    5.400000000000000    8.100000000000000   -0.003038145601749   -0.002881918335333    0.010140466503799 
55    8.100000000000000    8.100000000000000    0.000000000000000   -0.004773127846420   -0.020093094557524   -0.261526554822922 
56    8.100000000000000    8.100000000000000    5.400000000000000   -0.000291673262836   -0.003656195476651   -0.015955694019794 
57    9.449999999999999    1.350000000000000    4.050000000000000   -0.001254831557162   -0.004249643534422    0.015146368183196 
58    9.449999999999999    1.350000000000000    9.449999999999999    0.004604874178767    0.017539111897349    0.260053068399429 
59    9.449999999999999    4.050000000000000    1.350000000000000   -0.000678033509757    0.002556104911491   -0.011645535007119 
60    9.449999999999999    4.050000000000000    6.750000000000000    0.000906129542273   -0.001981856301427    0.008417927660048 
61    9.449999999999999    6.750000000000000    4.050000000000000    0.000326712121023    0.001515264506452    0.014146878384054 
62    9.449999999999999    6.750000000000000    9.449999999999999   -0.005889502819628   -0.010692564770579    0.277975529432297 
63    9.449999999999999    9.449999999999999    1.350000000000000   -0.014121049083769   -0.016786521300673   -0.001334946718998 
64    9.449999999999999    9.449999999999999    6.750000000000000    0.001115402556024    0.004055149387568    0.004193740431219 
