ITEM: TIMESTEP
0
ITEM: NUMBER OF ATOMS
64
ITEM: BOX BOUNDS xy xz yz pp pp pp
0.0000000000000000e+00 1.0800000000000001e+01 0.0000000000000000e+00
0.0000000000000000e+00 1.0800000000000001e+01 0.0000000000000000e+00
0.0000000000000000e+00 1.0800000000000001e+01 0.0000000000000000e+00
ITEM: ATOMS id xu yu zu fx fy fz 
1   -0.039999999999999    0.000000000000000    0.000000000000000    0.279534995555878    0.340770274400711   -0.217438921332359 
2    0.000000000000000    0.000000000000000    5.400000000000000   -0.000854139274452   -0.000872181146406   -0.014571456238627 
3    0.000000000000000    2.700000000000000    2.700000000000000   -0.092867799103260    0.087677657604218    0.074362173676491 
4    0.000000000000000    2.700000000000000    8.100000000000000    0.001218094839714    0.000393431255361    0.012010415084660 
5    0.000000000000000    5.400000000000000    0.000000000000000    0.009568867273629   -0.001139527768828   -0.267186909914017 
6    0.000000000000000    5.400000000000000    5.400000000000000    0.000202043884201    0.000526270479895   -0.013193052262068 
7    0.000000000000000    8.100000000000000    2.700000000000000    0.001722915912978   -0.002026653615758   -0.001152474083938 
8    0.000000000000000    8.100000000000000    8.100000000000000   -0.002041982486844   -0.002538758097216    0.012811010703444 
9    1.350000000000000    1.390000000000000    1.350000000000000   -0.041997630149126   -0.465401202440262   -0.196947261691093 
10    1.350000000000000    1.350000000000000    6.750000000000000    0.001696508727036   -0.002193417167291    0.003049211110920 
11    1.350000000000000    4.050000000000000    4.050000000000000    0.000081617006799    0.005532922688872    0.014516933821142 
12    1.350000000000000    4.050000000000000    9.449999999999999   -0.007887050509453   -0.000553206016775    0.255676954984665 
13    1.350000000000000    6.750000000000000    1.350000000000000    0.004244138952345    0.002056315541267   -0.015700275078416 
14    1.350000000000000    6.750000000000000    6.750000000000000   -0.001121437409893    0.003434456419200    0.004321231972426 
15    1.350000000000000    9.449999999999999    4.050000000000000   -0.005705477669835    0.007741721346974    0.010182713158429 
16    1.350000000000000    9.449999999999999    9.449999999999999   -0.003524217056111    0.010211662389338    0.264984577894211 
17    2.700000000000000    0.000000000000000    2.700000000000000   -0.089163064956665    0.099248267710209   -0.098836660385132 
18    2.700000000000000    0.000000000000000    8.100000000000000    0.000305634690449   -0.004619409330189    0.010492402128875 
19    2.700000000000000    2.700000000000000    0.000000000000000    0.085419431328773    0.075019232928753   -0.362921655178070 
20    2.700000000000000    2.700000000000000    5.400000000000000   -0.000272316217888   -0.004086425062269   -0.013883385807276 
21    2.700000000000000    5.400000000000000    2.700000000000000    0.002090954920277    0.002179658971727   -0.006504755467176 
22    2.700000000000000    5.400000000000000    8.100000000000000   -0.002384547144175   -0.001421968336217    0.014135363511741 
23    2.700000000000000    8.100000000000000    0.000000000000000    0.009828476235271   -0.015218476764858   -0.274066865444183 
24    2.700000000000000    8.100000000000000    5.400000000000000    0.001706578652374    0.002591735217720   -0.013573503121734 
25    4.050000000000000    1.350000000000000    4.050000000000000    0.002159542404115   -0.000885149464011    0.014770634472370 
26    4.050000000000000    1.350000000000000    9.449999999999999   -0.002885856898502   -0.003605926176533    0.248502656817436 
27    4.050000000000000    4.050000000000000    1.350000000000000   -0.007079318631440   -0.001211451832205   -0.017674116417766 
28    4.050000000000000    4.050000000000000    6.750000000000000   -0.002316363621503   -0.000651467300486    0.009589910507202 
29    4.050000000000000    6.750000000000000    4.050000000000000    0.000463248317828   -0.000683211022988    0.011297462508082 
30    4.050000000000000    6.750000000000000    9.449999999999999   -0.007145682349801   -0.007549356669188    0.253585696220398 
31    4.050000000000000    9.449999999999999    1.350000000000000   -0.003593707457185    0.003609571605921   -0.011983312666416 
32    4.050000000000000    9.449999999999999    6.750000000000000   -0.002889023162425    0.001624698401429    0.007152883801609 
33    5.400000000000000    0.000000000000000    0.000000000000000    0.007766371127218   -0.002667454071343   -0.257186710834503 
34    5.400000000000000    0.000000000000000    5.400000000000000   -0.000943049089983    0.001395956031047   -0.011403133161366 
35    5.400000000000000    2.700000000000000    2.700000000000000   -0.002133903559297   -0.002388416789472    0.001348145189695 
36    5.400000000000000    2.700000000000000    8.100000000000000    0.004355336539447    0.002383802784607    0.008442257530987 
37    5.400000000000000    5.400000000000000    0.000000000000000   -0.002610171679407   -0.007527683861554   -0.262871265411377 
38    5.400000000000000    5.400000000000000    5.400000000000000    0.000317886559060    0.000884765409864   -0.017424400895834 
39    5.400000000000000    8.100000000000000    2.700000000000000   -0.001172974123619    0.000676491879858   -0.007035044487566 
40    5.400000000000000    8.100000000000000    8.100000000000000    0.002902090549469   -0.001150191761553    0.017119195312262 
41    6.750000000000000    1.350000000000000    1.350000000000000    0.001525345491245   -0.001284286030568   -0.010190675035119 
42    6.750000000000000    1.350000000000000    6.750000000000000    0.000388208223740   -0.000454545428511    0.001807594322599 
43    6.750000000000000    4.050000000000000    4.050000000000000    0.000561804044992    0.001785004627891    0.013100504875183 
44    6.750000000000000    4.050000000000000    9.449999999999999   -0.004270759411156   -0.009068472310901    0.260896801948547 
45    6.750000000000000    6.750000000000000    1.350000000000000   -0.003131469944492    0.001359700341709   -0.012214449234307 
46    6.750000000000000    6.750000000000000    6.750000000000000    0.001426926930435   -0.000472465646453    0.007038651965559 
47    6.750000000000000    9.449999999999999    4.050000000000000   -0.000830636243336   -0.000226322415983    0.012536399066448 
48    6.750000000000000    9.449999999999999    9.449999999999999    0.003863381454721   -0.009193983860314    0.257146388292313 
49    8.100000000000000    0.000000000000000    2.700000000000000   -0.002427661325783   -0.000420936732553   -0.002604044275358 
50    8.100000000000000    0.000000000000000    8.100000000000000    0.000552885758225    0.000317247526255    0.015704777091742 
51    8.100000000000000    2.700000000000000    0.000000000000000    0.001287240767851   -0.018526103347540   -0.267056584358215 
52    8.100000000000000    2.700000000000000    5.400000000000000    0.001547873602249    0.003647155128419   -0.014316351152956 
53    8.100000000000000    5.400000000000000    2.700000000000000   -0.002637469209731    0.001311761094257   -0.001196868717670 
54    8.100000000000000    5.400000000000000    8.100000000000000    0.000812118931208   -0.000002837642796    0.006999673321843 
55    8.100000000000000    8.100000000000000    0.000000000000000   -0.009831382893026    0.005229559261352   -0.256791859865189 
56    8.100000000000000    8.100000000000000    5.400000000000000    0.000205680611543   -0.000188432197319   -0.012731918133795 
57    9.449999999999999    1.350000000000000    4.050000000000000   -0.002011242555454    0.001997691811994    0.011538089253008 
58    9.449999999999999    1.350000000000000    9.449999999999999   -0.003749574534595    0.010629656724632    0.263168483972549 
59    9.449999999999999    4.050000000000000    1.350000000000000   -0.000446364138043    0.004429541993886   -0.018803671002388 
60    9.449999999999999    4.050000000000000    6.750000000000000   -0.000493506202474    0.002715720329434    0.004361351020634 
61    9.449999999999999    6.750000000000000    4.050000000000000    0.002436479553580   -0.001086443779059    0.016313094645739 
62    9.449999999999999    6.750000000000000    9.449999999999999   -0.001370171317831    0.001510482397862    0.254415631294250 
63    9.449999999999999    9.449999999999999    1.350000000000000   -0.009386214427650   -0.012476776726544    0.000392041489249 
64    9.449999999999999    9.449999999999999    6.750000000000000    0.001197462319396    0.002026819391176    0.007060553412884 
