# Structure data of Fe3CuS8, Space Group No.148 (2x2x2 conventional) 

288 atoms
3 atom types

0.0 15.2645215988 xlo xhi
0.0 13.2194634812 ylo yhi
0.0 18.6951465607 zlo zhi
-7.6322607994 0.0 0.0 xy xz yz

Masses

1 55.845  # Fe
2 63.546  # Cu
3 32.065  # S

Atoms  # atomic

1 1 1.9080654212 5.508109656 3.1158578598
2 1 5.7241946913 7.7113542217 15.5792884204
3 1 1.9080656502 12.1178417932 3.1158578598
4 1 5.7241956072 1.101621688 15.5792884204
5 1 -3.8161304073 8.8129751298 3.1158578598
6 1 11.4483914357 4.4064879549 15.5792884204
7 1 5.7241960651 7.7113534286 6.231715701
8 1 -5.7241955995 9.9145976109 0.0
9 1 13.3564565745 1.1016221903 6.231715701
10 1 9.5403261137 3.304865672 0.0
11 1 7.6322601572e-09 11.0162192989 6.231715701
12 1 4.5793564762e-07 6.6097317406 0.0
13 1 1.9080651999 9.9145976109 9.3475732803
14 1 5.724195134 12.1178417932 3.1158575794
15 1 9.5403257703 3.3048662669 9.3475732803
16 1 5.7241953629 5.508109656 3.1158575794
17 1 3.8161301707 0.0 9.3475732803
18 1 1.9080654212 5.508109656 12.4634314206
19 1 1.9080656502 12.1178417932 12.4634314206
20 1 5.7241956072 1.101621688 6.2317151401
21 1 -3.8161304073 8.8129751298 12.4634314206
22 1 11.4483914357 4.4064879549 6.2317151401
23 1 -5.7241955995 9.9145976109 9.3475732803
24 1 13.3564565745 1.1016221903 15.5792884204
25 1 7.6322601572e-09 11.0162192989 15.5792884204
26 1 4.5793564762e-07 6.6097317406 9.3475732803
27 1 1.9080651999 9.9145976109 0.0
28 1 5.724195134 12.1178417932 12.4634314206
29 1 5.7241953629 5.508109656 12.4634314206
30 1 3.8161301707 0.0 0.0
31 1 -1.9080647495 12.1178410001 3.1158578598
32 1 9.54032532 1.1016220846 15.5792884204
33 1 -1.9080652075 5.5081100526 3.1158578598
34 1 9.5403255489 7.7113534286 15.5792884204
35 1 3.8161303921 8.8129751298 3.1158578598
36 1 3.8161306363 4.4064879549 15.5792884204
37 1 9.5403264038 1.1016217937 6.231715701
38 1 -1.9080651999 3.3048658703 0.0
39 1 1.9080652075 7.7113542217 6.231715701
40 1 -1.9080654288 9.9145976109 0.0
41 1 7.6322603491 11.0162192989 6.231715701
42 1 7.6322607994 6.6097317406 0.0
43 1 5.724195714 3.304865672 9.3475732803
44 1 9.5403255337 5.5081100526 3.1158575794
45 1 -1.9080651998 9.9145976109 9.3475732803
46 1 -5.7241954851 12.1178410001 3.1158575794
47 1 11.4483911991 0.0 9.3475732803
48 1 -1.9080647495 12.1178410001 12.4634314206
49 1 -1.9080652075 5.5081100526 12.4634314206
50 1 9.5403255489 7.7113534286 6.2317151401
51 1 3.8161303921 8.8129751298 12.4634314206
52 1 3.8161306363 4.4064879549 6.2317151401
53 1 -1.9080651999 3.3048658703 9.3475732803
54 1 1.9080652075 7.7113542217 15.5792884204
55 1 7.6322603491 11.0162192989 15.5792884204
56 1 7.6322607994 6.6097317406 9.3475732803
57 1 5.724195714 3.304865672 0.0
58 1 9.5403255337 5.5081100526 12.4634314206
59 1 -5.7241954851 12.1178410001 12.4634314206
60 1 11.4483911991 0.0 0.0
61 1 -1.9080656502 7.7113542217 15.5792884204
62 1 7.6322605628 2.2032437857 3.1158578598
63 1 -1.9080649632 7.7113534286 6.231715701
64 1 5.7241955995 9.9145976109 0.0
65 1 5.7241955995 9.9145976109 9.3475732803
66 1 7.6322605628 2.2032437857 12.4634314206
67 1 1.9080649785 1.1016220846 15.5792884204
68 1 -2.3660008464e-07 2.2032437857 3.1158578598
69 1 1.9080653754 1.1016217937 6.231715701
70 1 1.9080650854 3.304865672 0.0
71 1 1.9080649709 3.3048662669 9.3475732803
72 1 -2.3660008464e-07 2.2032437857 12.4634314206
73 2 0.0 0.0 0.0
74 2 3.8161305066 2.203243984 3.1158578598
75 2 7.6322606013e-09 4.4064879549 6.231715701
76 2 0.0 0.0 9.3475732803
77 2 3.8161305066 2.203243984 12.4634314206
78 2 7.6322606013e-09 4.4064879549 15.5792884204
79 2 -3.8161303997 6.6097317406 0.0
80 2 3.8161303997 6.6097317406 0.0
81 2 7.6322607994 0.0 0.0
82 2 -7.6322610454e-09 8.8129759229 3.1158578598
83 2 7.6322603338 8.8129759229 3.1158578598
84 2 11.448390848 2.203243984 3.1158578598
85 2 -3.8161301631 11.0162192989 6.231715701
86 2 3.8161308653 11.0162192989 6.231715701
87 2 7.632261036 4.4064879549 6.231715701
88 2 -3.8161303997 6.6097317406 9.3475732803
89 2 3.8161303997 6.6097317406 9.3475732803
90 2 7.6322607994 0.0 9.3475732803
91 2 -7.6322610454e-09 8.8129759229 12.4634314206
92 2 7.6322603338 8.8129759229 12.4634314206
93 2 11.448390848 2.203243984 12.4634314206
94 2 -3.8161301631 11.0162192989 15.5792884204
95 2 3.8161308653 11.0162192989 15.5792884204
96 2 7.632261036 4.4064879549 15.5792884204
97 3 4.8493899576 3.8099351432 4.3166439639
98 3 2.7828701549 9.4095287346 14.3785031576
99 3 9.5403264572 2.2947273246 4.3166439639
100 3 -1.9080651999 10.9247361566 14.3785031576
101 3 8.5070666703 7.1148006169 4.3166439639
102 3 -0.8748056419 6.1046624677 14.3785031576
103 3 8.6655205787 6.0131789289 7.4325015246
104 3 6.5990014628 11.6127721238 17.4943601762
105 3 -1.9080651464 4.4979711103 7.4325015246
106 3 1.9080651999 13.1279803257 17.4943601762
107 3 -2.9413247654 9.3180447992 7.4325015246
108 3 2.9413245364 8.3079062535 17.4943601762
109 3 4.8493897363 8.216423098 10.5483596649
110 3 10.4151315038 0.5965526663 1.9150716061
111 3 9.5403259992 6.7012148961 10.5483596649
112 3 5.7241954927 2.111760432 1.9150716061
113 3 8.5070666627 11.5212889683 10.5483596649
114 3 -0.8748058633 10.5111504226 1.9150716061
115 3 4.8493899576 3.8099351432 13.6642166834
116 3 2.7828701549 9.4095287346 5.0309293164
117 3 9.5403264572 2.2947273246 13.6642166834
118 3 -1.9080651999 10.9247361566 5.0309293164
119 3 8.5070666703 7.1148006169 13.6642166834
120 3 -0.8748056419 6.1046624677 5.0309293164
121 3 8.6655205787 6.0131789289 16.780074805
122 3 6.5990014628 11.6127721238 8.1467868958
123 3 -1.9080651464 4.4979711103 16.780074805
124 3 1.9080651999 13.1279803257 8.1467868958
125 3 -2.9413247654 9.3180447992 16.780074805
126 3 2.9413245364 8.3079062535 8.1467868958
127 3 4.8493897363 8.216423098 1.2007862537
128 3 10.4151315038 0.5965526663 11.2626450361
129 3 9.5403259992 6.7012148961 1.2007862537
130 3 5.7241954927 2.111760432 11.2626450361
131 3 8.5070666627 11.5212889683 1.2007862537
132 3 -0.8748058633 10.5111504226 11.2626450361
133 3 1.0332597869 10.4196664872 4.3166439639
134 3 6.5990007835 2.7997965974 14.3785031576
135 3 -1.9080651999 8.9044590652 4.3166439639
136 3 9.5403255413 4.315004416 14.3785031576
137 3 0.8748058709 7.1148006169 4.3166439639
138 3 6.7574551575 6.1046624677 14.3785031576
139 3 4.849390179 12.6229106695 7.4325015246
140 3 10.4151318625 5.0030403832 17.4943601762
141 3 1.9080651922 11.1077032475 7.4325015246
142 3 -1.9080650854 6.5182482018 17.4943601762
143 3 4.690935805 9.3180447992 7.4325015246
144 3 -4.6909359577 8.3079062535 17.4943601762
145 3 8.6655201894 1.6066912649 10.5483596649
146 3 6.5990010201 7.2062845523 1.9150716061
147 3 5.7241954469 0.0914834199 10.5483596649
148 3 9.5403260069 8.7214919743 1.9150716061
149 3 0.8748054206 11.5212889683 10.5483596649
150 3 6.7574553941 10.5111504226 1.9150716061
151 3 1.0332597869 10.4196664872 13.6642166834
152 3 6.5990007835 2.7997965974 5.0309293164
153 3 -1.9080651999 8.9044590652 13.6642166834
154 3 9.5403255413 4.315004416 5.0309293164
155 3 0.8748058709 7.1148006169 13.6642166834
156 3 6.7574551575 6.1046624677 5.0309293164
157 3 4.849390179 12.6229106695 16.780074805
158 3 10.4151318625 5.0030403832 8.1467868958
159 3 1.9080651922 11.1077032475 16.780074805
160 3 -1.9080650854 6.5182482018 8.1467868958
161 3 4.690935805 9.3180447992 16.780074805
162 3 -4.6909359577 8.3079062535 8.1467868958
163 3 8.6655201894 1.6066912649 1.2007862537
164 3 6.5990010201 7.2062845523 11.2626450361
165 3 5.7241954469 0.0914834199 1.2007862537
166 3 9.5403260069 8.7214919743 11.2626450361
167 3 0.8748054206 11.5212889683 1.2007862537
168 3 6.7574553941 10.5111504226 11.2626450361
169 3 12.481651215 3.8099351432 4.3166439639
170 3 -4.8493901866 9.4095287346 14.3785031576
171 3 5.7241960575 8.9044590652 4.3166439639
172 3 1.9080651998 4.315004416 14.3785031576
173 3 4.6909360416 0.5050692729 4.3166439639
174 3 2.9413245288 12.7143946049 14.3785031576
175 3 1.0332597793 6.0131789289 7.4325015246
176 3 -1.0332593366 11.6127721238 17.4943601762
177 3 -5.7241957751 11.1077032475 7.4325015246
178 3 5.7241958209 6.5182482018 17.4943601762
179 3 8.5070660903 2.7083132569 7.4325015246
180 3 -0.8748056725 1.6981747112 17.4943601762
181 3 -2.7828708342 8.216423098 10.5483596649
182 3 2.7828709334 0.5965526663 1.9150716061
183 3 13.3564562463 0.0914834199 10.5483596649
184 3 1.9080652075 8.7214919743 1.9150716061
185 3 4.6909358203 4.9115572277 10.5483596649
186 3 10.5735857938 3.901418682 1.9150716061
187 3 12.481651215 3.8099351432 13.6642166834
188 3 -4.8493901866 9.4095287346 5.0309293164
189 3 5.7241960575 8.9044590652 13.6642166834
190 3 1.9080651998 4.315004416 5.0309293164
191 3 4.6909360416 0.5050692729 13.6642166834
192 3 2.9413245288 12.7143946049 5.0309293164
193 3 1.0332597793 6.0131789289 16.780074805
194 3 -1.0332593366 11.6127721238 8.1467868958
195 3 -5.7241957751 11.1077032475 16.780074805
196 3 5.7241958209 6.5182482018 8.1467868958
197 3 8.5070660903 2.7083132569 16.780074805
198 3 -0.8748056725 1.6981747112 8.1467868958
199 3 -2.7828708342 8.216423098 1.2007862537
200 3 2.7828709334 0.5965526663 11.2626450361
201 3 13.3564562463 0.0914834199 1.2007862537
202 3 1.9080652075 8.7214919743 11.2626450361
203 3 4.6909358203 4.9115572277 1.2007862537
204 3 10.5735857938 3.901418682 11.2626450361
205 3 8.6655210442 10.4196664872 4.3166439639
206 3 -1.0332595579 2.7997965974 14.3785031576
207 3 1.9080651998 2.2947273246 4.3166439639
208 3 5.7241951416 10.9247361566 14.3785031576
209 3 12.323196841 0.5050692729 4.3166439639
210 3 -4.6909362706 12.7143946049 14.3785031576
211 3 -2.7828706204 12.6229106695 7.4325015246
212 3 2.7828710631 5.0030403832 17.4943601762
213 3 5.7241958209 4.4979711103 7.4325015246
214 3 -5.7241957064 13.1279803257 17.4943601762
215 3 0.8748055198 2.7083132569 7.4325015246
216 3 6.7574548216 1.6981747112 17.4943601762
217 3 1.033259619 1.6066912649 10.5483596649
218 3 -1.0332595503 7.2062845523 1.9150716061
219 3 1.9080651999 6.7012148961 10.5483596649
220 3 13.3564562921 2.111760432 1.9150716061
221 3 12.3231970624 4.9115572277 10.5483596649
222 3 2.9413245364 3.901418682 1.9150716061
223 3 8.6655210442 10.4196664872 13.6642166834
224 3 -1.0332595579 2.7997965974 5.0309293164
225 3 1.9080651998 2.2947273246 13.6642166834
226 3 5.7241951416 10.9247361566 5.0309293164
227 3 12.323196841 0.5050692729 13.6642166834
228 3 -4.6909362706 12.7143946049 5.0309293164
229 3 -2.7828706204 12.6229106695 16.780074805
230 3 2.7828710631 5.0030403832 8.1467868958
231 3 5.7241958209 4.4979711103 16.780074805
232 3 -5.7241957064 13.1279803257 8.1467868958
233 3 0.8748055198 2.7083132569 16.780074805
234 3 6.7574548216 1.6981747112 8.1467868958
235 3 1.033259619 1.6066912649 1.2007862537
236 3 -1.0332595503 7.2062845523 11.2626450361
237 3 1.9080651999 6.7012148961 1.2007862537
238 3 13.3564562921 2.111760432 11.2626450361
239 3 12.3231970624 4.9115572277 1.2007862537
240 3 2.9413245364 3.901418682 11.2626450361
241 3 0.0 0.0 5.7452052091
242 3 0.0 0.0 12.9499413516
243 3 3.8161305066 2.203243984 8.8610627885
244 3 3.8161305066 2.203243984 16.0657994731
245 3 7.6322606013e-09 4.4064879549 11.9769203679
246 3 7.6322606013e-09 4.4064879549 0.4865103236
247 3 0.0 0.0 15.0927784895
248 3 0.0 0.0 3.6023680712
249 3 3.8161305066 2.203243984 18.2086366297
250 3 3.8161305066 2.203243984 6.7182256506
251 3 7.6322606013e-09 4.4064879549 2.629347368
252 3 7.6322606013e-09 4.4064879549 9.8340832113
253 3 -3.8161303997 6.6097317406 5.7452052091
254 3 -3.8161303997 6.6097317406 12.9499413516
255 3 3.8161303997 6.6097317406 5.7452052091
256 3 3.8161303997 6.6097317406 12.9499413516
257 3 7.6322607994 0.0 5.7452052091
258 3 7.6322607994 0.0 12.9499413516
259 3 -7.6322610454e-09 8.8129759229 8.8610627885
260 3 -7.6322610454e-09 8.8129759229 16.0657994731
261 3 7.6322603338 8.8129759229 8.8610627885
262 3 7.6322603338 8.8129759229 16.0657994731
263 3 11.448390848 2.203243984 8.8610627885
264 3 11.448390848 2.203243984 16.0657994731
265 3 -3.8161301631 11.0162192989 11.9769203679
266 3 -3.8161301631 11.0162192989 0.4865103236
267 3 3.8161308653 11.0162192989 11.9769203679
268 3 3.8161308653 11.0162192989 0.4865103236
269 3 7.632261036 4.4064879549 11.9769203679
270 3 7.632261036 4.4064879549 0.4865103236
271 3 -3.8161303997 6.6097317406 15.0927784895
272 3 -3.8161303997 6.6097317406 3.6023680712
273 3 3.8161303997 6.6097317406 15.0927784895
274 3 3.8161303997 6.6097317406 3.6023680712
275 3 7.6322607994 0.0 15.0927784895
276 3 7.6322607994 0.0 3.6023680712
277 3 -7.6322610454e-09 8.8129759229 18.2086366297
278 3 -7.6322610454e-09 8.8129759229 6.7182256506
279 3 7.6322603338 8.8129759229 18.2086366297
280 3 7.6322603338 8.8129759229 6.7182256506
281 3 11.448390848 2.203243984 18.2086366297
282 3 11.448390848 2.203243984 6.7182256506
283 3 -3.8161301631 11.0162192989 2.629347368
284 3 -3.8161301631 11.0162192989 9.8340832113
285 3 3.8161308653 11.0162192989 2.629347368
286 3 3.8161308653 11.0162192989 9.8340832113
287 3 7.632261036 4.4064879549 2.629347368
288 3 7.632261036 4.4064879549 9.8340832113
