# Structure data of FeCuS4, Space Group No.14 (2x2x2 conventional) 

96 atoms
3 atom types

0.0 10.7936477661 xlo xhi
0.0 10.7936477661 ylo yhi
0.0 10.7936477661 zlo zhi
0.000000    0.000000    0.000000   xy xz yz

Masses

1 55.845  # Fe
2 63.546  # Cu
3 32.065  # S

Atoms  # atomic

1 1 0.0 2.6984119415 2.6984119415
2 1 0.0 8.0952358246 8.0952358246
3 1 0.0 5.396823883 0.0
4 1 0.0 0.0 5.396823883
5 1 0.0 2.6984119415 8.0952358246
6 1 0.0 8.0952358246 2.6984119415
7 1 0.0 5.396823883 5.396823883
8 1 0.0 0.0 0.0
9 1 5.396823883 2.6984119415 2.6984119415
10 1 5.396823883 8.0952358246 8.0952358246
11 1 5.396823883 5.396823883 0.0
12 1 5.396823883 0.0 5.396823883
13 1 5.396823883 2.6984119415 8.0952358246
14 1 5.396823883 8.0952358246 2.6984119415
15 1 5.396823883 5.396823883 5.396823883
16 1 5.396823883 0.0 0.0
17 2 2.6984119415 2.6984119415 0.0
18 2 8.0952358246 8.0952358246 0.0
19 2 8.0952358246 5.396823883 2.6984119415
20 2 2.6984119415 0.0 2.6984119415
21 2 2.6984119415 2.6984119415 5.396823883
22 2 8.0952358246 8.0952358246 5.396823883
23 2 8.0952358246 5.396823883 8.0952358246
24 2 2.6984119415 0.0 8.0952358246
25 2 2.6984119415 8.0952358246 0.0
26 2 8.0952358246 2.6984119415 0.0
27 2 8.0952358246 0.0 2.6984119415
28 2 2.6984119415 5.396823883 2.6984119415
29 2 2.6984119415 8.0952358246 5.396823883
30 2 8.0952358246 2.6984119415 5.396823883
31 2 8.0952358246 0.0 8.0952358246
32 2 2.6984119415 5.396823883 8.0952358246
33 3 2.079827988 0.6185839535 4.7782400915
34 3 8.7138196161 10.1750639745 6.0154076746
35 3 8.7138196161 3.3169957331 8.7138196161
36 3 2.079827988 2.079827988 7.476652033
37 3 2.079827988 0.6185839535 10.1750639745
38 3 8.7138196161 10.1750639745 0.6185837916
39 3 8.7138196161 3.3169957331 3.3169957331
40 3 2.079827988 2.079827988 2.07982815
41 3 2.079827988 6.0154076746 4.7782400915
42 3 8.7138196161 4.7782400915 6.0154076746
43 3 8.7138196161 8.7138196161 8.7138196161
44 3 2.079827988 7.476652033 7.476652033
45 3 2.079827988 6.0154076746 10.1750639745
46 3 8.7138196161 4.7782400915 0.6185837916
47 3 8.7138196161 8.7138196161 3.3169957331
48 3 2.079827988 7.476652033 2.07982815
49 3 7.476652033 0.6185839535 4.7782400915
50 3 3.3169957331 10.1750639745 6.0154076746
51 3 3.3169957331 3.3169957331 8.7138196161
52 3 7.476652033 2.079827988 7.476652033
53 3 7.476652033 0.6185839535 10.1750639745
54 3 3.3169957331 10.1750639745 0.6185837916
55 3 3.3169957331 3.3169957331 3.3169957331
56 3 7.476652033 2.079827988 2.07982815
57 3 7.476652033 6.0154076746 4.7782400915
58 3 3.3169957331 4.7782400915 6.0154076746
59 3 3.3169957331 8.7138196161 8.7138196161
60 3 7.476652033 7.476652033 7.476652033
61 3 7.476652033 6.0154076746 10.1750639745
62 3 3.3169957331 4.7782400915 0.6185837916
63 3 3.3169957331 8.7138196161 3.3169957331
64 3 7.476652033 7.476652033 2.07982815
65 3 0.6185839535 4.7782400915 2.079827988
66 3 10.1750639745 6.0154076746 8.7138196161
67 3 10.1750639745 7.476652033 0.6185839535
68 3 0.6185839535 8.7138196161 4.7782400915
69 3 0.6185839535 4.7782400915 7.476652033
70 3 10.1750639745 6.0154076746 3.3169957331
71 3 10.1750639745 7.476652033 6.0154076746
72 3 0.6185839535 8.7138196161 10.1750639745
73 3 0.6185839535 10.1750639745 2.079827988
74 3 10.1750639745 0.6185837916 8.7138196161
75 3 10.1750639745 2.07982815 0.6185839535
76 3 0.6185839535 3.3169957331 4.7782400915
77 3 0.6185839535 10.1750639745 7.476652033
78 3 10.1750639745 0.6185837916 3.3169957331
79 3 10.1750639745 2.07982815 6.0154076746
80 3 0.6185839535 3.3169957331 10.1750639745
81 3 6.0154076746 4.7782400915 2.079827988
82 3 4.7782400915 6.0154076746 8.7138196161
83 3 4.7782400915 7.476652033 0.6185839535
84 3 6.0154076746 8.7138196161 4.7782400915
85 3 6.0154076746 4.7782400915 7.476652033
86 3 4.7782400915 6.0154076746 3.3169957331
87 3 4.7782400915 7.476652033 6.0154076746
88 3 6.0154076746 8.7138196161 10.1750639745
89 3 6.0154076746 10.1750639745 2.079827988
90 3 4.7782400915 0.6185837916 8.7138196161
91 3 4.7782400915 2.07982815 0.6185839535
92 3 6.0154076746 3.3169957331 4.7782400915
93 3 6.0154076746 10.1750639745 7.476652033
94 3 4.7782400915 0.6185837916 3.3169957331
95 3 4.7782400915 2.07982815 6.0154076746
96 3 6.0154076746 3.3169957331 10.1750639745
