# Structure data of Ba (2x2x2 conventional) 

16 atoms
1 atom types

0.0 10.0606002808 xlo xhi
0.0 10.0606002808 ylo yhi
0.0 10.0606002808 zlo zhi
0.000000    0.000000    0.000000   xy xz yz

Masses

1 137.327  # Ba

Atoms  # atomic

1 1 0.0 0.0 0.0
2 1 0.0 0.0 5.03030014
3 1 0.0 5.03030014 0.0
4 1 0.0 5.03030014 5.03030014
5 1 5.03030014 0.0 0.0
6 1 5.03030014 0.0 5.03030014
7 1 5.03030014 5.03030014 0.0
8 1 5.03030014 5.03030014 5.03030014
9 1 2.51515007 2.51515007 2.51515007
10 1 2.51515007 2.51515007 7.545450211
11 1 2.51515007 7.545450211 2.51515007
12 1 2.51515007 7.545450211 7.545450211
13 1 7.545450211 2.51515007 2.51515007
14 1 7.545450211 2.51515007 7.545450211
15 1 7.545450211 7.545450211 2.51515007
16 1 7.545450211 7.545450211 7.545450211
