
:LABEL1: Calculations in /home/inukai/WIEN2k/Si-phonon/1
:LABEL2: on MSI at Mon Oct 31 13:01:37 JST 2022
:LABEL3: using WIEN2k_16.1 (Release 12/12/2016) in /home/inukai/WIEN2k_16
:LABEL4: using the command: run_lapw -fc 0.02
 Flat Integration
 New Mode for Coulomb Integral
 Consistent 3/8+Simpson combinations
 Extension of core to zero
 LDM version in phi
 Fifth-order quadrature in outwin


            ---------
:ITE001:  1. ITERATION
            ---------

:NATO :   64 INDEPENDENT AND   64 TOTAL ATOMS IN UNITCELL
       SUBSTANCE: Title                                                       

       LATTICE                      = P   
:POT  : POTENTIAL OPTION EX_PBE EC_PBE VX_PBE VC_PBE
:LAT  : LATTICE CONSTANTS= 20.66880 20.66880 20.66880    1.571    1.571    1.571
:VOL  : UNIT CELL VOLUME =    8829.69163
       MODE OF CALCULATION IS       = RELA
       NON-SPINPOLARIZED CALCULATION
:IFFT  : FFT-parameters:  160  160  160 Factor: 2.00
       ATOMNUMBER=  1 Si         VCOUL-ZERO =  0.98688E-01
:EFG001:                        EFG         =     0.00568   *10**21  V / m**2
                               V20  TOT/SRF=     0.00002     0.00003
                               V22  TOT/SRF=    -0.00004    -0.00006
                               V22M TOT/SRF=     0.00000     0.00000
                               V21  TOT/SRF=     0.00000     0.00000
                               V21M TOT/SRF=    -0.00566    -0.00943

             -0.00005    0.00000    0.00000       -0.00005    0.00000    0.00000
              0.00000    0.00003   -0.00566        0.00000   -0.00563    0.00000
              0.00000   -0.00566    0.00002        0.00000    0.00000    0.00568

         MAIN DIRECTIONS OF THE EFG   1.0000 -0.0000  0.0000
                                      0.0000  0.9999  1.0000
                                      0.0000  1.0000 -0.9999
:ANG001:  ANGLE WITH OLD X-AXIS =         0.0

:ETA001:                         ASYMM. ETA =     0.98252


       ATOMNUMBER=  2 Si         VCOUL-ZERO =  0.98706E-01
:EFG002:                        EFG         =     0.00000   *10**21  V / m**2
                               V20  TOT/SRF=     0.00000    -0.00000
                               V22  TOT/SRF=     0.00000     0.00000
                               V22M TOT/SRF=    -0.00000    -0.00000
                               V21  TOT/SRF=    -0.00000    -0.00000
                               V21M TOT/SRF=     0.00000     0.00000

             -0.00000   -0.00000   -0.00000       -0.00000    0.00000    0.00000
             -0.00000   -0.00000    0.00000        0.00000   -0.00000    0.00000
             -0.00000    0.00000    0.00000        0.00000    0.00000    0.00000

         MAIN DIRECTIONS OF THE EFG   1.0000  0.0165 -0.0000
                                     -0.0165  1.0000  0.0010
                                      0.0000 -0.0010  1.0000
:ANG002:  ANGLE WITH OLD X-AXIS =         0.9

:ETA002:                         ASYMM. ETA =     0.01004


       ATOMNUMBER=  3 Si         VCOUL-ZERO =  0.98706E-01
:EFG003:                        EFG         =     0.00000   *10**21  V / m**2
                               V20  TOT/SRF=     0.00000    -0.00000
                               V22  TOT/SRF=    -0.00000    -0.00000
                               V22M TOT/SRF=     0.00000     0.00000
                               V21  TOT/SRF=     0.00000     0.00000
                               V21M TOT/SRF=     0.00000     0.00000

             -0.00000    0.00000    0.00000       -0.00000    0.00000    0.00000
              0.00000   -0.00000    0.00000        0.00000   -0.00000    0.00000
              0.00000    0.00000    0.00000        0.00000    0.00000    0.00000

         MAIN DIRECTIONS OF THE EFG   1.0000  0.0271  0.0000
                                     -0.0271  1.0000  0.0001
                                     -0.0000 -0.0001  1.0000
:ANG003:  ANGLE WITH OLD X-AXIS =         1.6

:ETA003:                         ASYMM. ETA =     0.00518


       ATOMNUMBER=  4 Si         VCOUL-ZERO =  0.98706E-01
:EFG004:                        EFG         =     0.00000   *10**21  V / m**2
                               V20  TOT/SRF=     0.00000    -0.00000
                               V22  TOT/SRF=     0.00000     0.00000
                               V22M TOT/SRF=    -0.00000    -0.00000
                               V21  TOT/SRF=    -0.00000    -0.00000
                               V21M TOT/SRF=    -0.00000    -0.00000

             -0.00000   -0.00000   -0.00000       -0.00000    0.00000    0.00000
             -0.00000   -0.00000   -0.00000        0.00000   -0.00000    0.00000
             -0.00000   -0.00000    0.00000        0.00000    0.00000    0.00000

         MAIN DIRECTIONS OF THE EFG   1.0000  0.7285 -0.0000
                                     -0.7285  1.0000 -0.0001
                                     -0.0000  0.0001  1.0000
:ANG004:  ANGLE WITH OLD X-AXIS =        36.1

:ETA004:                         ASYMM. ETA =     0.00035


       ATOMNUMBER=  5 Si         VCOUL-ZERO =  0.98706E-01
:EFG005:                        EFG         =     0.00000   *10**21  V / m**2
                               V20  TOT/SRF=     0.00000    -0.00000
                               V22  TOT/SRF=     0.00000     0.00000
                               V22M TOT/SRF=    -0.00000    -0.00000
                               V21  TOT/SRF=    -0.00000    -0.00000
                               V21M TOT/SRF=     0.00000     0.00000

             -0.00000   -0.00000   -0.00000       -0.00000    0.00000    0.00000
             -0.00000   -0.00000    0.00000        0.00000   -0.00000    0.00000
             -0.00000    0.00000    0.00000        0.00000    0.00000    0.00000

         MAIN DIRECTIONS OF THE EFG   1.0000  0.1985 -0.0000
                                     -0.1985  1.0000  0.0000
                                      0.0000 -0.0000  1.0000
:ANG005:  ANGLE WITH OLD X-AXIS =        11.2

:ETA005:                         ASYMM. ETA =     0.00086


       ATOMNUMBER=  6 Si         VCOUL-ZERO =  0.98706E-01
:EFG006:                        EFG         =     0.00000   *10**21  V / m**2
                               V20  TOT/SRF=     0.00000    -0.00000
                               V22  TOT/SRF=     0.00000     0.00000
                               V22M TOT/SRF=     0.00000     0.00000
                               V21  TOT/SRF=     0.00000     0.00000
                               V21M TOT/SRF=    -0.00000    -0.00000

             -0.00000    0.00000    0.00000       -0.00000    0.00000    0.00000
              0.00000   -0.00000   -0.00000        0.00000   -0.00000    0.00000
              0.00000   -0.00000    0.00000        0.00000    0.00000    0.00000

         MAIN DIRECTIONS OF THE EFG   1.0000 -0.1110  0.0000
                                      0.1110  1.0000 -0.0000
                                     -0.0000  0.0000  1.0000
:ANG006:  ANGLE WITH OLD X-AXIS =         6.3

:ETA006:                         ASYMM. ETA =     0.00128


       ATOMNUMBER=  7 Si         VCOUL-ZERO =  0.98706E-01
:EFG007:                        EFG         =     0.00000   *10**21  V / m**2
                               V20  TOT/SRF=     0.00000    -0.00000
                               V22  TOT/SRF=    -0.00000    -0.00000
                               V22M TOT/SRF=    -0.00000    -0.00000
                               V21  TOT/SRF=    -0.00000    -0.00000
                               V21M TOT/SRF=     0.00000     0.00000

             -0.00000   -0.00000   -0.00000       -0.00000    0.00000    0.00000
             -0.00000   -0.00000    0.00000        0.00000   -0.00000    0.00000
             -0.00000    0.00000    0.00000        0.00000    0.00000    0.00000

         MAIN DIRECTIONS OF THE EFG   1.0000 -0.1114 -0.0000
                                      0.1114  1.0000  0.0016
                                     -0.0002 -0.0016  1.0000
:ANG007:  ANGLE WITH OLD X-AXIS =         6.4

:ETA007:                         ASYMM. ETA =     0.00151


       ATOMNUMBER=  8 Si         VCOUL-ZERO =  0.98706E-01
:EFG008:                        EFG         =     0.00000   *10**21  V / m**2
                               V20  TOT/SRF=     0.00000    -0.00000
                               V22  TOT/SRF=     0.00000     0.00000
                               V22M TOT/SRF=     0.00000     0.00000
                               V21  TOT/SRF=     0.00000     0.00000
                               V21M TOT/SRF=     0.00000     0.00000

             -0.00000    0.00000    0.00000       -0.00000    0.00000    0.00000
              0.00000   -0.00000    0.00000        0.00000   -0.00000    0.00000
              0.00000    0.00000    0.00000        0.00000    0.00000    0.00000

         MAIN DIRECTIONS OF THE EFG   1.0000 -0.4941  0.0000
                                      0.4941  1.0000  0.0006
                                     -0.0003 -0.0006  1.0000
:ANG008:  ANGLE WITH OLD X-AXIS =        26.3

:ETA008:                         ASYMM. ETA =     0.00036


       ATOMNUMBER=  9 Si         VCOUL-ZERO =  0.98707E-01
:EFG009:                        EFG         =     0.00001   *10**21  V / m**2
                               V20  TOT/SRF=     0.00000     0.00000
                               V22  TOT/SRF=     0.00000     0.00000
                               V22M TOT/SRF=    -0.00000    -0.00000
                               V21  TOT/SRF=     0.00000     0.00000
                               V21M TOT/SRF=     0.00000     0.00000

             -0.00000   -0.00000    0.00000       -0.00000    0.00000    0.00000
             -0.00000   -0.00000    0.00000        0.00000   -0.00000    0.00000
              0.00000    0.00000    0.00001        0.00000    0.00000    0.00001

         MAIN DIRECTIONS OF THE EFG   1.0000  0.0821  0.0092
                                     -0.0821  1.0000  0.1139
                                      0.0001 -0.1147  1.0000
:ANG009:  ANGLE WITH OLD X-AXIS =         4.7

:ETA009:                         ASYMM. ETA =     0.67694


       ATOMNUMBER= 10 Si         VCOUL-ZERO =  0.98706E-01
:EFG010:                        EFG         =     0.00000   *10**21  V / m**2
                               V20  TOT/SRF=     0.00000    -0.00000
                               V22  TOT/SRF=    -0.00000    -0.00000
                               V22M TOT/SRF=    -0.00000    -0.00000
                               V21  TOT/SRF=     0.00000     0.00000
                               V21M TOT/SRF=    -0.00000    -0.00000

             -0.00000   -0.00000    0.00000       -0.00000    0.00000    0.00000
             -0.00000   -0.00000   -0.00000        0.00000   -0.00000    0.00000
              0.00000   -0.00000    0.00000        0.00000    0.00000    0.00000

         MAIN DIRECTIONS OF THE EFG   1.0000 -0.7363  0.0054
                                      0.7363  1.0000 -0.0068
                                     -0.0004  0.0109  1.0000
:ANG010:  ANGLE WITH OLD X-AXIS =        36.4

:ETA010:                         ASYMM. ETA =     0.04491


       ATOMNUMBER= 11 Si         VCOUL-ZERO =  0.99392E-01
:EFG011:                        EFG         =    -0.00232   *10**21  V / m**2
                               V20  TOT/SRF=    -0.00026    -0.00044
                               V22  TOT/SRF=     0.00045     0.00076
                               V22M TOT/SRF=     0.00095     0.00158
                               V21  TOT/SRF=     0.00095     0.00158
                               V21M TOT/SRF=    -0.00140    -0.00234

              0.00060    0.00095    0.00095       -0.00232    0.00000    0.00000
              0.00095   -0.00030   -0.00140        0.00000    0.00122    0.00000
              0.00095   -0.00140   -0.00030        0.00000    0.00000    0.00110

         MAIN DIRECTIONS OF THE EFG  -0.6524  1.0000  0.0034
                                      1.0000  0.3288 -0.9962
                                      0.9984  0.3241  1.0000
:ANG011:  ANGLE WITH OLD X-AXIS =       123.1

:ETA011:                         ASYMM. ETA =     0.05128


       ATOMNUMBER= 12 Si         VCOUL-ZERO =  0.98703E-01
:EFG012:                        EFG         =     0.00001   *10**21  V / m**2
                               V20  TOT/SRF=     0.00000    -0.00000
                               V22  TOT/SRF=     0.00000     0.00001
                               V22M TOT/SRF=     0.00000     0.00001
                               V21  TOT/SRF=     0.00000     0.00001
                               V21M TOT/SRF=     0.00000     0.00000

              0.00000    0.00000    0.00000        0.00001    0.00000    0.00000
              0.00000   -0.00000    0.00000        0.00000   -0.00000    0.00000
              0.00000    0.00000    0.00000        0.00000    0.00000   -0.00001

         MAIN DIRECTIONS OF THE EFG   1.0000 -0.7208 -0.3681
                                      0.3682 -0.2653  1.0000
                                      0.8185  1.0000 -0.0001
:ANG012:  ANGLE WITH OLD X-AXIS =        39.0

:ETA012:                         ASYMM. ETA =     0.83204


       ATOMNUMBER= 13 Si         VCOUL-ZERO =  0.98706E-01
:EFG013:                        EFG         =     0.00000   *10**21  V / m**2
                               V20  TOT/SRF=     0.00000    -0.00000
                               V22  TOT/SRF=     0.00000     0.00000
                               V22M TOT/SRF=    -0.00000    -0.00000
                               V21  TOT/SRF=    -0.00000    -0.00000
                               V21M TOT/SRF=    -0.00000    -0.00000

             -0.00000   -0.00000   -0.00000       -0.00000    0.00000    0.00000
             -0.00000   -0.00000   -0.00000        0.00000   -0.00000    0.00000
             -0.00000   -0.00000    0.00000        0.00000    0.00000    0.00000

         MAIN DIRECTIONS OF THE EFG   1.0000  0.1824 -0.0013
                                     -0.1824  1.0000 -0.0018
                                      0.0010  0.0020  1.0000
:ANG013:  ANGLE WITH OLD X-AXIS =        10.3

:ETA013:                         ASYMM. ETA =     0.01286


       ATOMNUMBER= 14 Si         VCOUL-ZERO =  0.98706E-01
:EFG014:                        EFG         =     0.00000   *10**21  V / m**2
                               V20  TOT/SRF=     0.00000    -0.00000
                               V22  TOT/SRF=     0.00000     0.00000
                               V22M TOT/SRF=    -0.00000    -0.00000
                               V21  TOT/SRF=    -0.00000    -0.00000
                               V21M TOT/SRF=    -0.00000    -0.00000

             -0.00000   -0.00000   -0.00000       -0.00000    0.00000    0.00000
             -0.00000   -0.00000   -0.00000        0.00000   -0.00000    0.00000
             -0.00000   -0.00000    0.00000        0.00000    0.00000    0.00000

         MAIN DIRECTIONS OF THE EFG   1.0000  0.7472 -0.0024
                                     -0.7472  1.0000 -0.0042
                                     -0.0007  0.0060  1.0000
:ANG014:  ANGLE WITH OLD X-AXIS =        36.8

:ETA014:                         ASYMM. ETA =     0.00715


       ATOMNUMBER= 15 Si         VCOUL-ZERO =  0.98707E-01
:EFG015:                        EFG         =     0.00000   *10**21  V / m**2
                               V20  TOT/SRF=     0.00000    -0.00000
                               V22  TOT/SRF=     0.00000     0.00000
                               V22M TOT/SRF=     0.00000     0.00000
                               V21  TOT/SRF=    -0.00000    -0.00000
                               V21M TOT/SRF=     0.00000     0.00000

             -0.00000    0.00000   -0.00000       -0.00000    0.00000    0.00000
              0.00000   -0.00000    0.00000        0.00000    0.00000    0.00000
             -0.00000    0.00000    0.00000        0.00000    0.00000   -0.00000

         MAIN DIRECTIONS OF THE EFG   1.0000 -0.0740 -0.2122
                                      0.2165  0.2734  1.0000
                                      0.0148  1.0000 -0.2891
:ANG015:  ANGLE WITH OLD X-AXIS =        12.7

:ETA015:                         ASYMM. ETA =     0.33102


       ATOMNUMBER= 16 Si         VCOUL-ZERO =  0.98706E-01
:EFG016:                        EFG         =     0.00000   *10**21  V / m**2
                               V20  TOT/SRF=     0.00000    -0.00000
                               V22  TOT/SRF=     0.00000     0.00000
                               V22M TOT/SRF=     0.00000     0.00000
                               V21  TOT/SRF=    -0.00000    -0.00000
                               V21M TOT/SRF=    -0.00000    -0.00000

             -0.00000    0.00000   -0.00000       -0.00000    0.00000    0.00000
              0.00000   -0.00000   -0.00000        0.00000   -0.00000    0.00000
             -0.00000   -0.00000    0.00000        0.00000    0.00000    0.00000

         MAIN DIRECTIONS OF THE EFG   1.0000 -0.7688 -0.0140
                                      0.7689  1.0000 -0.0066
                                      0.0191 -0.0042  1.0000
:ANG016:  ANGLE WITH OLD X-AXIS =        37.6

:ETA016:                         ASYMM. ETA =     0.01628


       ATOMNUMBER= 17 Si         VCOUL-ZERO =  0.98706E-01
:EFG017:                        EFG         =    -0.00001   *10**21  V / m**2
                               V20  TOT/SRF=     0.00000    -0.00000
                               V22  TOT/SRF=     0.00000     0.00000
                               V22M TOT/SRF=     0.00000     0.00001
                               V21  TOT/SRF=    -0.00000    -0.00001
                               V21M TOT/SRF=     0.00000     0.00000

             -0.00000    0.00000   -0.00000       -0.00001    0.00000    0.00000
              0.00000   -0.00000    0.00000        0.00000    0.00001    0.00000
             -0.00000    0.00000    0.00000        0.00000    0.00000    0.00000

         MAIN DIRECTIONS OF THE EFG   1.0000 -0.6436  0.5702
                                     -0.8314 -0.3102  1.0000
                                      0.3857  1.0000  0.6772
:ANG017:  ANGLE WITH OLD X-AXIS =        40.7

:ETA017:                         ASYMM. ETA =     0.87491


       ATOMNUMBER= 18 Si         VCOUL-ZERO =  0.98706E-01
:EFG018:                        EFG         =     0.00000   *10**21  V / m**2
                               V20  TOT/SRF=     0.00000    -0.00000
                               V22  TOT/SRF=    -0.00000    -0.00000
                               V22M TOT/SRF=    -0.00000    -0.00000
                               V21  TOT/SRF=     0.00000     0.00000
                               V21M TOT/SRF=    -0.00000    -0.00000

             -0.00000   -0.00000    0.00000       -0.00000    0.00000    0.00000
             -0.00000   -0.00000   -0.00000        0.00000   -0.00000    0.00000
              0.00000   -0.00000    0.00000        0.00000    0.00000    0.00000

         MAIN DIRECTIONS OF THE EFG   1.0000 -0.9430  0.0054
                                      0.9431  1.0000 -0.0009
                                     -0.0045  0.0059  1.0000
:ANG018:  ANGLE WITH OLD X-AXIS =        43.3

:ETA018:                         ASYMM. ETA =     0.01549


       ATOMNUMBER= 19 Si         VCOUL-ZERO =  0.98706E-01
:EFG019:                        EFG         =    -0.00001   *10**21  V / m**2
                               V20  TOT/SRF=     0.00000    -0.00000
                               V22  TOT/SRF=     0.00000     0.00000
                               V22M TOT/SRF=    -0.00000    -0.00001
                               V21  TOT/SRF=    -0.00000    -0.00001
                               V21M TOT/SRF=    -0.00000    -0.00000

             -0.00000   -0.00000   -0.00000       -0.00001    0.00000    0.00000
             -0.00000   -0.00000   -0.00000        0.00000    0.00001    0.00000
             -0.00000   -0.00000    0.00000        0.00000    0.00000    0.00000

         MAIN DIRECTIONS OF THE EFG   1.0000 -0.6442 -0.5709
                                      0.8324  0.3114  1.0000
                                      0.3850  1.0000 -0.6792
:ANG019:  ANGLE WITH OLD X-AXIS =        40.7

:ETA019:                         ASYMM. ETA =     0.87843


       ATOMNUMBER= 20 Si         VCOUL-ZERO =  0.98706E-01
:EFG020:                        EFG         =     0.00000   *10**21  V / m**2
                               V20  TOT/SRF=     0.00000    -0.00000
                               V22  TOT/SRF=     0.00000     0.00000
                               V22M TOT/SRF=     0.00000     0.00000
                               V21  TOT/SRF=     0.00000     0.00000
                               V21M TOT/SRF=     0.00000     0.00000

             -0.00000    0.00000    0.00000       -0.00000    0.00000    0.00000
              0.00000   -0.00000    0.00000        0.00000   -0.00000    0.00000
              0.00000    0.00000    0.00000        0.00000    0.00000    0.00000

         MAIN DIRECTIONS OF THE EFG   1.0000 -0.7840  0.0055
                                      0.7841  1.0000  0.0007
                                     -0.0061  0.0036  1.0000
:ANG020:  ANGLE WITH OLD X-AXIS =        38.1

:ETA020:                         ASYMM. ETA =     0.01684


       ATOMNUMBER= 21 Si         VCOUL-ZERO =  0.98706E-01
:EFG021:                        EFG         =    -0.00001   *10**21  V / m**2
                               V20  TOT/SRF=     0.00000    -0.00000
                               V22  TOT/SRF=     0.00000     0.00000
                               V22M TOT/SRF=     0.00000     0.00001
                               V21  TOT/SRF=     0.00000     0.00001
                               V21M TOT/SRF=    -0.00000    -0.00000

             -0.00000    0.00000    0.00000       -0.00001    0.00000    0.00000
              0.00000   -0.00000   -0.00000        0.00000    0.00001    0.00000
              0.00000   -0.00000    0.00000        0.00000    0.00000    0.00000

         MAIN DIRECTIONS OF THE EFG   1.0000  0.6444  0.5710
                                     -0.8326  0.3114  1.0000
                                     -0.3851  1.0000 -0.6794
:ANG021:  ANGLE WITH OLD X-AXIS =        40.7

:ETA021:                         ASYMM. ETA =     0.87847


       ATOMNUMBER= 22 Si         VCOUL-ZERO =  0.98706E-01
:EFG022:                        EFG         =     0.00000   *10**21  V / m**2
                               V20  TOT/SRF=     0.00000    -0.00000
                               V22  TOT/SRF=     0.00000     0.00000
                               V22M TOT/SRF=    -0.00000    -0.00000
                               V21  TOT/SRF=    -0.00000    -0.00000
                               V21M TOT/SRF=     0.00000     0.00000

             -0.00000   -0.00000   -0.00000       -0.00000    0.00000    0.00000
             -0.00000   -0.00000    0.00000        0.00000   -0.00000    0.00000
             -0.00000    0.00000    0.00000        0.00000    0.00000    0.00000

         MAIN DIRECTIONS OF THE EFG   1.0000  0.8135 -0.0055
                                     -0.8136  1.0000  0.0008
                                      0.0062  0.0037  1.0000
:ANG022:  ANGLE WITH OLD X-AXIS =        39.1

:ETA022:                         ASYMM. ETA =     0.01674


       ATOMNUMBER= 23 Si         VCOUL-ZERO =  0.98706E-01
:EFG023:                        EFG         =    -0.00001   *10**21  V / m**2
                               V20  TOT/SRF=     0.00000    -0.00000
                               V22  TOT/SRF=     0.00000     0.00000
                               V22M TOT/SRF=    -0.00000    -0.00001
                               V21  TOT/SRF=     0.00000     0.00001
                               V21M TOT/SRF=     0.00000     0.00000

             -0.00000   -0.00000    0.00000       -0.00001    0.00000    0.00000
             -0.00000   -0.00000    0.00000        0.00000    0.00001    0.00000
              0.00000    0.00000    0.00000        0.00000    0.00000    0.00000

         MAIN DIRECTIONS OF THE EFG   1.0000  0.6438 -0.5703
                                      0.8316 -0.3103  1.0000
                                     -0.3858  1.0000  0.6774
:ANG023:  ANGLE WITH OLD X-AXIS =        40.7

:ETA023:                         ASYMM. ETA =     0.87503


       ATOMNUMBER= 24 Si         VCOUL-ZERO =  0.98706E-01
:EFG024:                        EFG         =     0.00000   *10**21  V / m**2
                               V20  TOT/SRF=     0.00000    -0.00000
                               V22  TOT/SRF=    -0.00000    -0.00000
                               V22M TOT/SRF=     0.00000     0.00000
                               V21  TOT/SRF=    -0.00000    -0.00000
                               V21M TOT/SRF=    -0.00000    -0.00000

             -0.00000    0.00000   -0.00000       -0.00000    0.00000    0.00000
              0.00000   -0.00000   -0.00000        0.00000   -0.00000    0.00000
             -0.00000   -0.00000    0.00000        0.00000    0.00000    0.00000

         MAIN DIRECTIONS OF THE EFG   1.0000  0.9065 -0.0054
                                     -0.9065  1.0000 -0.0008
                                      0.0046  0.0057  1.0000
:ANG024:  ANGLE WITH OLD X-AXIS =        42.2

:ETA024:                         ASYMM. ETA =     0.01549


       ATOMNUMBER= 25 Si         VCOUL-ZERO =  0.99392E-01
:EFG025:                        EFG         =    -0.00232   *10**21  V / m**2
                               V20  TOT/SRF=    -0.00026    -0.00044
                               V22  TOT/SRF=     0.00045     0.00076
                               V22M TOT/SRF=    -0.00095    -0.00158
                               V21  TOT/SRF=    -0.00095    -0.00158
                               V21M TOT/SRF=    -0.00140    -0.00234

              0.00060   -0.00095   -0.00095       -0.00232    0.00000    0.00000
             -0.00095   -0.00030   -0.00140        0.00000    0.00122    0.00000
             -0.00095   -0.00140   -0.00030        0.00000    0.00000    0.00110

         MAIN DIRECTIONS OF THE EFG   0.6524  1.0000 -0.0034
                                      1.0000 -0.3288 -0.9962
                                      0.9984 -0.3241  1.0000
:ANG025:  ANGLE WITH OLD X-AXIS =        56.9

:ETA025:                         ASYMM. ETA =     0.05128


       ATOMNUMBER= 26 Si         VCOUL-ZERO =  0.98703E-01
:EFG026:                        EFG         =     0.00001   *10**21  V / m**2
                               V20  TOT/SRF=     0.00000    -0.00000
                               V22  TOT/SRF=     0.00000     0.00001
                               V22M TOT/SRF=    -0.00000    -0.00001
                               V21  TOT/SRF=    -0.00000    -0.00001
                               V21M TOT/SRF=     0.00000     0.00000

              0.00000   -0.00000   -0.00000        0.00001    0.00000    0.00000
             -0.00000   -0.00000    0.00000        0.00000   -0.00000    0.00000
             -0.00000    0.00000    0.00000        0.00000    0.00000   -0.00001

         MAIN DIRECTIONS OF THE EFG   1.0000  0.7209  0.3683
                                     -0.3683 -0.2655  1.0000
                                     -0.8187  1.0000 -0.0000
:ANG026:  ANGLE WITH OLD X-AXIS =        39.0

:ETA026:                         ASYMM. ETA =     0.83213


       ATOMNUMBER= 27 Si         VCOUL-ZERO =  0.98707E-01
:EFG027:                        EFG         =     0.00001   *10**21  V / m**2
                               V20  TOT/SRF=     0.00000     0.00000
                               V22  TOT/SRF=     0.00000     0.00000
                               V22M TOT/SRF=     0.00000     0.00000
                               V21  TOT/SRF=    -0.00000    -0.00000
                               V21M TOT/SRF=     0.00000     0.00000

             -0.00000    0.00000   -0.00000       -0.00000    0.00000    0.00000
              0.00000   -0.00000    0.00000        0.00000   -0.00000    0.00000
             -0.00000    0.00000    0.00001        0.00000    0.00000    0.00001

         MAIN DIRECTIONS OF THE EFG   1.0000 -0.0822 -0.0092
                                      0.0822  1.0000  0.1139
                                     -0.0002 -0.1147  1.0000
:ANG027:  ANGLE WITH OLD X-AXIS =         4.7

:ETA027:                         ASYMM. ETA =     0.67736


       ATOMNUMBER= 28 Si         VCOUL-ZERO =  0.98706E-01
:EFG028:                        EFG         =     0.00000   *10**21  V / m**2
                               V20  TOT/SRF=     0.00000    -0.00000
                               V22  TOT/SRF=    -0.00000    -0.00000
                               V22M TOT/SRF=     0.00000     0.00000
                               V21  TOT/SRF=    -0.00000    -0.00000
                               V21M TOT/SRF=    -0.00000    -0.00000

             -0.00000    0.00000   -0.00000       -0.00000    0.00000    0.00000
              0.00000   -0.00000   -0.00000        0.00000   -0.00000    0.00000
             -0.00000   -0.00000    0.00000        0.00000    0.00000    0.00000

         MAIN DIRECTIONS OF THE EFG   1.0000  0.7282 -0.0054
                                     -0.7282  1.0000 -0.0068
                                      0.0005  0.0108  1.0000
:ANG028:  ANGLE WITH OLD X-AXIS =        36.1

:ETA028:                         ASYMM. ETA =     0.04462


       ATOMNUMBER= 29 Si         VCOUL-ZERO =  0.98707E-01
:EFG029:                        EFG         =     0.00000   *10**21  V / m**2
                               V20  TOT/SRF=     0.00000    -0.00000
                               V22  TOT/SRF=     0.00000     0.00000
                               V22M TOT/SRF=    -0.00000    -0.00000
                               V21  TOT/SRF=     0.00000     0.00000
                               V21M TOT/SRF=     0.00000     0.00000

             -0.00000   -0.00000    0.00000       -0.00000    0.00000    0.00000
             -0.00000   -0.00000    0.00000        0.00000    0.00000    0.00000
              0.00000    0.00000    0.00000        0.00000    0.00000   -0.00000

         MAIN DIRECTIONS OF THE EFG   1.0000  0.0739  0.2136
                                     -0.2178  0.2734  1.0000
                                     -0.0144  1.0000 -0.2891
:ANG029:  ANGLE WITH OLD X-AXIS =        12.7

:ETA029:                         ASYMM. ETA =     0.33064


       ATOMNUMBER= 30 Si         VCOUL-ZERO =  0.98706E-01
:EFG030:                        EFG         =     0.00000   *10**21  V / m**2
                               V20  TOT/SRF=     0.00000    -0.00000
                               V22  TOT/SRF=     0.00000     0.00000
                               V22M TOT/SRF=    -0.00000    -0.00000
                               V21  TOT/SRF=     0.00000     0.00000
                               V21M TOT/SRF=    -0.00000    -0.00000

             -0.00000   -0.00000    0.00000       -0.00000    0.00000    0.00000
             -0.00000   -0.00000   -0.00000        0.00000   -0.00000    0.00000
              0.00000   -0.00000    0.00000        0.00000    0.00000    0.00000

         MAIN DIRECTIONS OF THE EFG   1.0000  0.7477  0.0140
                                     -0.7477  1.0000 -0.0066
                                     -0.0190 -0.0039  1.0000
:ANG030:  ANGLE WITH OLD X-AXIS =        36.8

:ETA030:                         ASYMM. ETA =     0.01608


       ATOMNUMBER= 31 Si         VCOUL-ZERO =  0.98706E-01
:EFG031:                        EFG         =     0.00000   *10**21  V / m**2
                               V20  TOT/SRF=     0.00000    -0.00000
                               V22  TOT/SRF=     0.00000     0.00000
                               V22M TOT/SRF=     0.00000     0.00000
                               V21  TOT/SRF=     0.00000     0.00000
                               V21M TOT/SRF=    -0.00000    -0.00000

             -0.00000    0.00000    0.00000       -0.00000    0.00000    0.00000
              0.00000   -0.00000   -0.00000        0.00000   -0.00000    0.00000
              0.00000   -0.00000    0.00000        0.00000    0.00000    0.00000

         MAIN DIRECTIONS OF THE EFG   1.0000 -0.1716  0.0013
                                      0.1716  1.0000 -0.0018
                                     -0.0010  0.0020  1.0000
:ANG031:  ANGLE WITH OLD X-AXIS =         9.7

:ETA031:                         ASYMM. ETA =     0.01237


       ATOMNUMBER= 32 Si         VCOUL-ZERO =  0.98706E-01
:EFG032:                        EFG         =     0.00000   *10**21  V / m**2
                               V20  TOT/SRF=     0.00000    -0.00000
                               V22  TOT/SRF=     0.00000     0.00000
                               V22M TOT/SRF=     0.00000     0.00000
                               V21  TOT/SRF=     0.00000     0.00000
                               V21M TOT/SRF=    -0.00000    -0.00000

             -0.00000    0.00000    0.00000       -0.00000    0.00000    0.00000
              0.00000   -0.00000   -0.00000        0.00000   -0.00000    0.00000
              0.00000   -0.00000    0.00000        0.00000    0.00000    0.00000

         MAIN DIRECTIONS OF THE EFG   1.0000 -0.7210  0.0024
                                      0.7210  1.0000 -0.0042
                                      0.0006  0.0060  1.0000
:ANG032:  ANGLE WITH OLD X-AXIS =        35.8

:ETA032:                         ASYMM. ETA =     0.00756


       ATOMNUMBER= 33 Si         VCOUL-ZERO =  0.98693E-01
:EFG033:                        EFG         =     0.00004   *10**21  V / m**2
                               V20  TOT/SRF=     0.00002     0.00002
                               V22  TOT/SRF=     0.00001     0.00002
                               V22M TOT/SRF=    -0.00000    -0.00000
                               V21  TOT/SRF=     0.00002     0.00004
                               V21M TOT/SRF=    -0.00000    -0.00000

              0.00000   -0.00000    0.00002        0.00004    0.00000    0.00000
             -0.00000   -0.00002   -0.00000        0.00000   -0.00002    0.00000
              0.00002   -0.00000    0.00002        0.00000    0.00000   -0.00002

         MAIN DIRECTIONS OF THE EFG   0.7212  1.0000  0.0011
                                     -0.0003 -0.0015  1.0000
                                      1.0000 -0.7212 -0.0005
:ANG033:  ANGLE WITH OLD X-AXIS =        54.2

:ETA033:                         ASYMM. ETA =     0.05989


       ATOMNUMBER= 34 Si         VCOUL-ZERO =  0.98719E-01
:EFG034:                        EFG         =    -0.00003   *10**21  V / m**2
                               V20  TOT/SRF=    -0.00001    -0.00002
                               V22  TOT/SRF=    -0.00001    -0.00002
                               V22M TOT/SRF=     0.00000     0.00000
                               V21  TOT/SRF=     0.00002     0.00004
                               V21M TOT/SRF=    -0.00000    -0.00000

             -0.00001    0.00000    0.00002       -0.00003    0.00000    0.00000
              0.00000    0.00001   -0.00000        0.00000    0.00002    0.00000
              0.00002   -0.00000   -0.00001        0.00000    0.00000    0.00001

         MAIN DIRECTIONS OF THE EFG  -0.9481  1.0000  0.0005
                                      0.0010 -0.0001  1.0000
                                      1.0000  0.9481 -0.0005
:ANG034:  ANGLE WITH OLD X-AXIS =       133.5

:ETA034:                         ASYMM. ETA =     0.10496


       ATOMNUMBER= 35 Si         VCOUL-ZERO =  0.98706E-01
:EFG035:                        EFG         =     0.00000   *10**21  V / m**2
                               V20  TOT/SRF=     0.00000    -0.00000
                               V22  TOT/SRF=    -0.00000    -0.00000
                               V22M TOT/SRF=    -0.00000    -0.00000
                               V21  TOT/SRF=     0.00000     0.00000
                               V21M TOT/SRF=     0.00000     0.00000

             -0.00000   -0.00000    0.00000       -0.00000    0.00000    0.00000
             -0.00000   -0.00000    0.00000        0.00000   -0.00000    0.00000
              0.00000    0.00000    0.00000        0.00000    0.00000    0.00000

         MAIN DIRECTIONS OF THE EFG   1.0000 -0.9115  0.0030
                                      0.9115  1.0000  0.0017
                                     -0.0045  0.0010  1.0000
:ANG035:  ANGLE WITH OLD X-AXIS =        42.3

:ETA035:                         ASYMM. ETA =     0.00071


       ATOMNUMBER= 36 Si         VCOUL-ZERO =  0.98706E-01
:EFG036:                        EFG         =     0.00000   *10**21  V / m**2
                               V20  TOT/SRF=     0.00000    -0.00000
                               V22  TOT/SRF=    -0.00000     0.00000
                               V22M TOT/SRF=     0.00000     0.00000
                               V21  TOT/SRF=     0.00000     0.00000
                               V21M TOT/SRF=     0.00000     0.00000

             -0.00000    0.00000    0.00000       -0.00000    0.00000    0.00000
              0.00000   -0.00000    0.00000        0.00000    0.00000    0.00000
              0.00000    0.00000    0.00000        0.00000    0.00000   -0.00000

         MAIN DIRECTIONS OF THE EFG   1.0000  0.0019  0.1663
                                     -0.1663  0.0017  1.0000
                                     -0.0017  1.0000 -0.0021
:ANG036:  ANGLE WITH OLD X-AXIS =         9.4

:ETA036:                         ASYMM. ETA =     0.00247


       ATOMNUMBER= 37 Si         VCOUL-ZERO =  0.98693E-01
:EFG037:                        EFG         =     0.00004   *10**21  V / m**2
                               V20  TOT/SRF=     0.00002     0.00002
                               V22  TOT/SRF=     0.00001     0.00002
                               V22M TOT/SRF=     0.00000     0.00000
                               V21  TOT/SRF=    -0.00002    -0.00004
                               V21M TOT/SRF=    -0.00000    -0.00000

              0.00000    0.00000   -0.00002        0.00004    0.00000    0.00000
              0.00000   -0.00002   -0.00000        0.00000   -0.00002    0.00000
             -0.00002   -0.00000    0.00002        0.00000    0.00000   -0.00002

         MAIN DIRECTIONS OF THE EFG  -0.7212  1.0000 -0.0010
                                     -0.0003  0.0013  1.0000
                                      1.0000  0.7212 -0.0004
:ANG037:  ANGLE WITH OLD X-AXIS =       125.8

:ETA037:                         ASYMM. ETA =     0.05994


       ATOMNUMBER= 38 Si         VCOUL-ZERO =  0.98719E-01
:EFG038:                        EFG         =    -0.00003   *10**21  V / m**2
                               V20  TOT/SRF=    -0.00001    -0.00002
                               V22  TOT/SRF=    -0.00001    -0.00002
                               V22M TOT/SRF=    -0.00000    -0.00000
                               V21  TOT/SRF=    -0.00002    -0.00004
                               V21M TOT/SRF=    -0.00000    -0.00000

             -0.00001   -0.00000   -0.00002       -0.00003    0.00000    0.00000
             -0.00000    0.00001   -0.00000        0.00000    0.00002    0.00000
             -0.00002   -0.00000   -0.00001        0.00000    0.00000    0.00001

         MAIN DIRECTIONS OF THE EFG   0.9481  1.0000 -0.0004
                                      0.0010 -0.0001  1.0000
                                      1.0000 -0.9481 -0.0005
:ANG038:  ANGLE WITH OLD X-AXIS =        46.5

:ETA038:                         ASYMM. ETA =     0.10492


       ATOMNUMBER= 39 Si         VCOUL-ZERO =  0.98706E-01
:EFG039:                        EFG         =     0.00000   *10**21  V / m**2
                               V20  TOT/SRF=     0.00000    -0.00000
                               V22  TOT/SRF=     0.00000    -0.00000
                               V22M TOT/SRF=     0.00000     0.00000
                               V21  TOT/SRF=    -0.00000    -0.00000
                               V21M TOT/SRF=     0.00000     0.00000

             -0.00000    0.00000   -0.00000       -0.00000    0.00000    0.00000
              0.00000   -0.00000    0.00000        0.00000    0.00000    0.00000
             -0.00000    0.00000    0.00000        0.00000    0.00000   -0.00000

         MAIN DIRECTIONS OF THE EFG   1.0000 -0.0030 -0.5748
                                      0.5748  0.0017  1.0000
                                      0.0020  1.0000 -0.0034
:ANG039:  ANGLE WITH OLD X-AXIS =        29.9

:ETA039:                         ASYMM. ETA =     0.00075


       ATOMNUMBER= 40 Si         VCOUL-ZERO =  0.98706E-01
:EFG040:                        EFG         =     0.00000   *10**21  V / m**2
                               V20  TOT/SRF=     0.00000    -0.00000
                               V22  TOT/SRF=    -0.00000     0.00000
                               V22M TOT/SRF=    -0.00000    -0.00000
                               V21  TOT/SRF=    -0.00000    -0.00000
                               V21M TOT/SRF=     0.00000     0.00000

             -0.00000   -0.00000   -0.00000       -0.00000    0.00000    0.00000
             -0.00000   -0.00000    0.00000        0.00000    0.00000    0.00000
             -0.00000    0.00000    0.00000        0.00000    0.00000   -0.00000

         MAIN DIRECTIONS OF THE EFG   1.0000 -0.0019 -0.1486
                                      0.1486  0.0018  1.0000
                                      0.0017  1.0000 -0.0021
:ANG040:  ANGLE WITH OLD X-AXIS =         8.5

:ETA040:                         ASYMM. ETA =     0.00290


       ATOMNUMBER= 41 Si         VCOUL-ZERO =  0.98705E-01
:EFG041:                        EFG         =     0.00000   *10**21  V / m**2
                               V20  TOT/SRF=     0.00000    -0.00000
                               V22  TOT/SRF=    -0.00000    -0.00000
                               V22M TOT/SRF=    -0.00000    -0.00000
                               V21  TOT/SRF=    -0.00000    -0.00000
                               V21M TOT/SRF=     0.00000     0.00000

             -0.00000   -0.00000   -0.00000       -0.00000    0.00000    0.00000
             -0.00000   -0.00000    0.00000        0.00000   -0.00000    0.00000
             -0.00000    0.00000    0.00000        0.00000    0.00000    0.00000

         MAIN DIRECTIONS OF THE EFG   1.0000 -0.0791 -0.0225
                                      0.0791  1.0000  0.2848
                                      0.0000 -0.2865  1.0000
:ANG041:  ANGLE WITH OLD X-AXIS =         4.7

:ETA041:                         ASYMM. ETA =     0.82703


       ATOMNUMBER= 42 Si         VCOUL-ZERO =  0.98706E-01
:EFG042:                        EFG         =     0.00000   *10**21  V / m**2
                               V20  TOT/SRF=     0.00000    -0.00000
                               V22  TOT/SRF=     0.00000     0.00000
                               V22M TOT/SRF=    -0.00000    -0.00000
                               V21  TOT/SRF=    -0.00000    -0.00000
                               V21M TOT/SRF=    -0.00000    -0.00000

             -0.00000   -0.00000   -0.00000       -0.00000    0.00000    0.00000
             -0.00000   -0.00000   -0.00000        0.00000   -0.00000    0.00000
             -0.00000   -0.00000    0.00000        0.00000    0.00000    0.00000

         MAIN DIRECTIONS OF THE EFG   1.0000  0.7085 -0.0045
                                     -0.7086  1.0000 -0.0059
                                      0.0003  0.0090  1.0000
:ANG042:  ANGLE WITH OLD X-AXIS =        35.3

:ETA042:                         ASYMM. ETA =     0.03598


       ATOMNUMBER= 43 Si         VCOUL-ZERO =  0.98012E-01
:EFG043:                        EFG         =     0.00237   *10**21  V / m**2
                               V20  TOT/SRF=     0.00027     0.00046
                               V22  TOT/SRF=    -0.00047    -0.00079
                               V22M TOT/SRF=     0.00097     0.00159
                               V21  TOT/SRF=    -0.00097    -0.00159
                               V21M TOT/SRF=    -0.00144    -0.00239

             -0.00063    0.00097   -0.00097        0.00237    0.00000    0.00000
              0.00097    0.00031   -0.00144        0.00000   -0.00125    0.00000
             -0.00097   -0.00144    0.00032        0.00000    0.00000   -0.00112

         MAIN DIRECTIONS OF THE EFG  -0.6445  1.0000  0.0036
                                     -0.9983 -0.3244  0.9993
                                      1.0000  0.3206  1.0000
:ANG043:  ANGLE WITH OLD X-AXIS =       122.8

:ETA043:                         ASYMM. ETA =     0.05252


       ATOMNUMBER= 44 Si         VCOUL-ZERO =  0.98709E-01
:EFG044:                        EFG         =    -0.00001   *10**21  V / m**2
                               V20  TOT/SRF=     0.00001     0.00000
                               V22  TOT/SRF=    -0.00000    -0.00001
                               V22M TOT/SRF=     0.00000     0.00000
                               V21  TOT/SRF=    -0.00000    -0.00000
                               V21M TOT/SRF=     0.00000     0.00000

             -0.00001    0.00000   -0.00000       -0.00001    0.00000    0.00000
              0.00000    0.00000    0.00000        0.00000    0.00000    0.00000
             -0.00000    0.00000    0.00001        0.00000    0.00000    0.00001

         MAIN DIRECTIONS OF THE EFG   1.0000  0.3671 -0.1953
                                     -0.3674  1.0000  0.0701
                                      0.2211  0.0016  1.0000
:ANG044:  ANGLE WITH OLD X-AXIS =        22.6

:ETA044:                         ASYMM. ETA =     0.70938


       ATOMNUMBER= 45 Si         VCOUL-ZERO =  0.98706E-01
:EFG045:                        EFG         =     0.00000   *10**21  V / m**2
                               V20  TOT/SRF=     0.00000    -0.00000
                               V22  TOT/SRF=    -0.00000    -0.00000
                               V22M TOT/SRF=    -0.00000    -0.00000
                               V21  TOT/SRF=     0.00000     0.00000
                               V21M TOT/SRF=    -0.00000    -0.00000

             -0.00000   -0.00000    0.00000       -0.00000    0.00000    0.00000
             -0.00000   -0.00000   -0.00000        0.00000   -0.00000    0.00000
              0.00000   -0.00000    0.00000        0.00000    0.00000    0.00000

         MAIN DIRECTIONS OF THE EFG   1.0000 -0.1166  0.0012
                                      0.1166  1.0000 -0.0031
                                     -0.0009  0.0032  1.0000
:ANG045:  ANGLE WITH OLD X-AXIS =         6.7

:ETA045:                         ASYMM. ETA =     0.01590


       ATOMNUMBER= 46 Si         VCOUL-ZERO =  0.98706E-01
:EFG046:                        EFG         =     0.00000   *10**21  V / m**2
                               V20  TOT/SRF=     0.00000    -0.00000
                               V22  TOT/SRF=    -0.00000    -0.00000
                               V22M TOT/SRF=    -0.00000    -0.00000
                               V21  TOT/SRF=     0.00000     0.00000
                               V21M TOT/SRF=    -0.00000    -0.00000

             -0.00000   -0.00000    0.00000       -0.00000    0.00000    0.00000
             -0.00000   -0.00000   -0.00000        0.00000   -0.00000    0.00000
              0.00000   -0.00000    0.00000        0.00000    0.00000    0.00000

         MAIN DIRECTIONS OF THE EFG   1.0000 -0.7253  0.0025
                                      0.7253  1.0000 -0.0046
                                      0.0008  0.0064  1.0000
:ANG046:  ANGLE WITH OLD X-AXIS =        36.0

:ETA046:                         ASYMM. ETA =     0.00797


       ATOMNUMBER= 47 Si         VCOUL-ZERO =  0.98705E-01
:EFG047:                        EFG         =     0.00001   *10**21  V / m**2
                               V20  TOT/SRF=     0.00001     0.00000
                               V22  TOT/SRF=    -0.00000    -0.00000
                               V22M TOT/SRF=     0.00000     0.00000
                               V21  TOT/SRF=     0.00000     0.00000
                               V21M TOT/SRF=     0.00000     0.00000

             -0.00000    0.00000    0.00000       -0.00000    0.00000    0.00000
              0.00000   -0.00000    0.00000        0.00000    0.00001    0.00000
              0.00000    0.00000    0.00001        0.00000    0.00000   -0.00000

         MAIN DIRECTIONS OF THE EFG   1.0000  0.0282  0.1553
                                     -0.1566  0.1148  1.0000
                                     -0.0103  1.0000 -0.1192
:ANG047:  ANGLE WITH OLD X-AXIS =         9.0

:ETA047:                         ASYMM. ETA =     0.06271


       ATOMNUMBER= 48 Si         VCOUL-ZERO =  0.98706E-01
:EFG048:                        EFG         =     0.00000   *10**21  V / m**2
                               V20  TOT/SRF=     0.00000    -0.00000
                               V22  TOT/SRF=     0.00000    -0.00000
                               V22M TOT/SRF=     0.00000     0.00000
                               V21  TOT/SRF=     0.00000     0.00000
                               V21M TOT/SRF=    -0.00000    -0.00000

             -0.00000    0.00000    0.00000       -0.00000    0.00000    0.00000
              0.00000   -0.00000   -0.00000        0.00000   -0.00000    0.00000
              0.00000   -0.00000    0.00000        0.00000    0.00000    0.00000

         MAIN DIRECTIONS OF THE EFG   1.0000 -0.9735  0.0115
                                      0.9736  1.0000 -0.0058
                                     -0.0058  0.0170  1.0000
:ANG048:  ANGLE WITH OLD X-AXIS =        44.2

:ETA048:                         ASYMM. ETA =     0.01330


       ATOMNUMBER= 49 Si         VCOUL-ZERO =  0.98693E-01
:EFG049:                        EFG         =     0.00003   *10**21  V / m**2
                               V20  TOT/SRF=    -0.00001    -0.00003
                               V22  TOT/SRF=    -0.00000    -0.00001
                               V22M TOT/SRF=    -0.00002    -0.00004
                               V21  TOT/SRF=     0.00000     0.00000
                               V21M TOT/SRF=    -0.00000    -0.00000

              0.00000   -0.00002    0.00000        0.00003    0.00000    0.00000
             -0.00002    0.00001   -0.00000        0.00000   -0.00002    0.00000
              0.00000   -0.00000   -0.00001        0.00000    0.00000   -0.00001

         MAIN DIRECTIONS OF THE EFG  -0.8213  1.0000  0.0002
                                      1.0000  0.8213  0.0006
                                     -0.0005 -0.0007  1.0000
:ANG049:  ANGLE WITH OLD X-AXIS =       129.4

:ETA049:                         ASYMM. ETA =     0.22429


       ATOMNUMBER= 50 Si         VCOUL-ZERO =  0.98719E-01
:EFG050:                        EFG         =    -0.00004   *10**21  V / m**2
                               V20  TOT/SRF=     0.00002     0.00002
                               V22  TOT/SRF=     0.00000     0.00001
                               V22M TOT/SRF=    -0.00002    -0.00004
                               V21  TOT/SRF=    -0.00000    -0.00000
                               V21M TOT/SRF=    -0.00000    -0.00000

             -0.00001   -0.00002   -0.00000       -0.00004    0.00000    0.00000
             -0.00002   -0.00002   -0.00000        0.00000    0.00001    0.00000
             -0.00000   -0.00000    0.00002        0.00000    0.00000    0.00002

         MAIN DIRECTIONS OF THE EFG   0.8273  1.0000 -0.0006
                                      1.0000 -0.8273 -0.0001
                                      0.0006  0.0005  1.0000
:ANG050:  ANGLE WITH OLD X-AXIS =        50.4

:ETA050:                         ASYMM. ETA =     0.17854


       ATOMNUMBER= 51 Si         VCOUL-ZERO =  0.98693E-01
:EFG051:                        EFG         =     0.00003   *10**21  V / m**2
                               V20  TOT/SRF=    -0.00001    -0.00003
                               V22  TOT/SRF=    -0.00000    -0.00001
                               V22M TOT/SRF=     0.00002     0.00004
                               V21  TOT/SRF=    -0.00000    -0.00000
                               V21M TOT/SRF=    -0.00000    -0.00000

              0.00000    0.00002   -0.00000        0.00003    0.00000    0.00000
              0.00002    0.00001   -0.00000        0.00000   -0.00002    0.00000
             -0.00000   -0.00000   -0.00001        0.00000    0.00000   -0.00001

         MAIN DIRECTIONS OF THE EFG   0.8213  1.0000 -0.0002
                                      1.0000 -0.8213  0.0006
                                     -0.0005  0.0006  1.0000
:ANG051:  ANGLE WITH OLD X-AXIS =        50.6

:ETA051:                         ASYMM. ETA =     0.22431


       ATOMNUMBER= 52 Si         VCOUL-ZERO =  0.98719E-01
:EFG052:                        EFG         =    -0.00004   *10**21  V / m**2
                               V20  TOT/SRF=     0.00002     0.00002
                               V22  TOT/SRF=     0.00000     0.00001
                               V22M TOT/SRF=     0.00002     0.00004
                               V21  TOT/SRF=     0.00000     0.00000
                               V21M TOT/SRF=    -0.00000    -0.00000

             -0.00001    0.00002    0.00000       -0.00004    0.00000    0.00000
              0.00002   -0.00002   -0.00000        0.00000    0.00001    0.00000
              0.00000   -0.00000    0.00002        0.00000    0.00000    0.00002

         MAIN DIRECTIONS OF THE EFG  -0.8273  1.0000  0.0006
                                      1.0000  0.8273 -0.0001
                                      0.0006 -0.0005  1.0000
:ANG052:  ANGLE WITH OLD X-AXIS =       129.6

:ETA052:                         ASYMM. ETA =     0.17857


       ATOMNUMBER= 53 Si         VCOUL-ZERO =  0.98706E-01
:EFG053:                        EFG         =     0.00000   *10**21  V / m**2
                               V20  TOT/SRF=     0.00000    -0.00000
                               V22  TOT/SRF=     0.00000     0.00000
                               V22M TOT/SRF=    -0.00000    -0.00000
                               V21  TOT/SRF=     0.00000     0.00000
                               V21M TOT/SRF=     0.00000     0.00000

             -0.00000   -0.00000    0.00000       -0.00000    0.00000    0.00000
             -0.00000   -0.00000    0.00000        0.00000   -0.00000    0.00000
              0.00000    0.00000    0.00000        0.00000    0.00000    0.00000

         MAIN DIRECTIONS OF THE EFG   1.0000  0.5835  0.0003
                                     -0.5835  1.0000  0.0017
                                      0.0007 -0.0019  1.0000
:ANG053:  ANGLE WITH OLD X-AXIS =        30.3

:ETA053:                         ASYMM. ETA =     0.01045


       ATOMNUMBER= 54 Si         VCOUL-ZERO =  0.98706E-01
:EFG054:                        EFG         =     0.00000   *10**21  V / m**2
                               V20  TOT/SRF=     0.00000    -0.00000
                               V22  TOT/SRF=    -0.00000    -0.00000
                               V22M TOT/SRF=    -0.00000    -0.00000
                               V21  TOT/SRF=    -0.00000    -0.00000
                               V21M TOT/SRF=     0.00000     0.00000

             -0.00000   -0.00000   -0.00000       -0.00000    0.00000    0.00000
             -0.00000   -0.00000    0.00000        0.00000   -0.00000    0.00000
             -0.00000    0.00000    0.00000        0.00000    0.00000    0.00000

         MAIN DIRECTIONS OF THE EFG   1.0000 -0.4069 -0.0004
                                      0.4069  1.0000  0.0018
                                     -0.0004 -0.0019  1.0000
:ANG054:  ANGLE WITH OLD X-AXIS =        22.1

:ETA054:                         ASYMM. ETA =     0.00795


       ATOMNUMBER= 55 Si         VCOUL-ZERO =  0.98706E-01
:EFG055:                        EFG         =     0.00000   *10**21  V / m**2
                               V20  TOT/SRF=     0.00000    -0.00000
                               V22  TOT/SRF=     0.00000     0.00000
                               V22M TOT/SRF=     0.00000     0.00000
                               V21  TOT/SRF=    -0.00000    -0.00000
                               V21M TOT/SRF=     0.00000     0.00000

             -0.00000    0.00000   -0.00000       -0.00000    0.00000    0.00000
              0.00000   -0.00000    0.00000        0.00000   -0.00000    0.00000
             -0.00000    0.00000    0.00000        0.00000    0.00000    0.00000

         MAIN DIRECTIONS OF THE EFG   1.0000 -0.5674 -0.0004
                                      0.5674  1.0000  0.0017
                                     -0.0006 -0.0019  1.0000
:ANG055:  ANGLE WITH OLD X-AXIS =        29.6

:ETA055:                         ASYMM. ETA =     0.01002


       ATOMNUMBER= 56 Si         VCOUL-ZERO =  0.98706E-01
:EFG056:                        EFG         =     0.00000   *10**21  V / m**2
                               V20  TOT/SRF=     0.00000    -0.00000
                               V22  TOT/SRF=    -0.00000    -0.00000
                               V22M TOT/SRF=     0.00000     0.00000
                               V21  TOT/SRF=     0.00000     0.00000
                               V21M TOT/SRF=     0.00000     0.00000

             -0.00000    0.00000    0.00000       -0.00000    0.00000    0.00000
              0.00000   -0.00000    0.00000        0.00000   -0.00000    0.00000
              0.00000    0.00000    0.00000        0.00000    0.00000    0.00000

         MAIN DIRECTIONS OF THE EFG   1.0000  0.4271  0.0004
                                     -0.4271  1.0000  0.0018
                                      0.0003 -0.0019  1.0000
:ANG056:  ANGLE WITH OLD X-AXIS =        23.1

:ETA056:                         ASYMM. ETA =     0.00824


       ATOMNUMBER= 57 Si         VCOUL-ZERO =  0.98012E-01
:EFG057:                        EFG         =     0.00237   *10**21  V / m**2
                               V20  TOT/SRF=     0.00027     0.00046
                               V22  TOT/SRF=    -0.00047    -0.00079
                               V22M TOT/SRF=    -0.00097    -0.00159
                               V21  TOT/SRF=     0.00097     0.00159
                               V21M TOT/SRF=    -0.00144    -0.00239

             -0.00063   -0.00097    0.00097        0.00237    0.00000    0.00000
             -0.00097    0.00031   -0.00144        0.00000   -0.00125    0.00000
              0.00097   -0.00144    0.00032        0.00000    0.00000   -0.00112

         MAIN DIRECTIONS OF THE EFG   0.6445  1.0000 -0.0036
                                     -0.9983  0.3244  0.9993
                                      1.0000 -0.3206  1.0000
:ANG057:  ANGLE WITH OLD X-AXIS =        57.2

:ETA057:                         ASYMM. ETA =     0.05252


       ATOMNUMBER= 58 Si         VCOUL-ZERO =  0.98709E-01
:EFG058:                        EFG         =    -0.00001   *10**21  V / m**2
                               V20  TOT/SRF=     0.00001     0.00000
                               V22  TOT/SRF=    -0.00000    -0.00001
                               V22M TOT/SRF=    -0.00000    -0.00000
                               V21  TOT/SRF=     0.00000     0.00000
                               V21M TOT/SRF=     0.00000     0.00000

             -0.00001   -0.00000    0.00000       -0.00001    0.00000    0.00000
             -0.00000    0.00000    0.00000        0.00000    0.00000    0.00000
              0.00000    0.00000    0.00001        0.00000    0.00000    0.00001

         MAIN DIRECTIONS OF THE EFG   1.0000 -0.3670  0.1953
                                      0.3673  1.0000  0.0701
                                     -0.2210  0.0015  1.0000
:ANG058:  ANGLE WITH OLD X-AXIS =        22.6

:ETA058:                         ASYMM. ETA =     0.70943


       ATOMNUMBER= 59 Si         VCOUL-ZERO =  0.98705E-01
:EFG059:                        EFG         =     0.00000   *10**21  V / m**2
                               V20  TOT/SRF=     0.00000    -0.00000
                               V22  TOT/SRF=    -0.00000    -0.00000
                               V22M TOT/SRF=     0.00000     0.00000
                               V21  TOT/SRF=     0.00000     0.00000
                               V21M TOT/SRF=     0.00000     0.00000

             -0.00000    0.00000    0.00000       -0.00000    0.00000    0.00000
              0.00000   -0.00000    0.00000        0.00000   -0.00000    0.00000
              0.00000    0.00000    0.00000        0.00000    0.00000    0.00000

         MAIN DIRECTIONS OF THE EFG   1.0000  0.0789  0.0226
                                     -0.0789  1.0000  0.2849
                                     -0.0001 -0.2866  1.0000
:ANG059:  ANGLE WITH OLD X-AXIS =         4.7

:ETA059:                         ASYMM. ETA =     0.82672


       ATOMNUMBER= 60 Si         VCOUL-ZERO =  0.98706E-01
:EFG060:                        EFG         =     0.00000   *10**21  V / m**2
                               V20  TOT/SRF=     0.00000    -0.00000
                               V22  TOT/SRF=     0.00000     0.00000
                               V22M TOT/SRF=     0.00000     0.00000
                               V21  TOT/SRF=     0.00000     0.00000
                               V21M TOT/SRF=    -0.00000    -0.00000

             -0.00000    0.00000    0.00000       -0.00000    0.00000    0.00000
              0.00000   -0.00000   -0.00000        0.00000   -0.00000    0.00000
              0.00000   -0.00000    0.00000        0.00000    0.00000    0.00000

         MAIN DIRECTIONS OF THE EFG   1.0000 -0.7152  0.0044
                                      0.7152  1.0000 -0.0059
                                     -0.0002  0.0091  1.0000
:ANG060:  ANGLE WITH OLD X-AXIS =        35.6

:ETA060:                         ASYMM. ETA =     0.03609


       ATOMNUMBER= 61 Si         VCOUL-ZERO =  0.98705E-01
:EFG061:                        EFG         =     0.00001   *10**21  V / m**2
                               V20  TOT/SRF=     0.00001     0.00000
                               V22  TOT/SRF=    -0.00000    -0.00000
                               V22M TOT/SRF=    -0.00000    -0.00000
                               V21  TOT/SRF=    -0.00000    -0.00000
                               V21M TOT/SRF=     0.00000     0.00000

             -0.00000   -0.00000   -0.00000       -0.00000    0.00000    0.00000
             -0.00000   -0.00000    0.00000        0.00000    0.00001    0.00000
             -0.00000    0.00000    0.00001        0.00000    0.00000   -0.00000

         MAIN DIRECTIONS OF THE EFG   1.0000 -0.0283 -0.1537
                                      0.1550  0.1147  1.0000
                                      0.0105  1.0000 -0.1191
:ANG061:  ANGLE WITH OLD X-AXIS =         8.9

:ETA061:                         ASYMM. ETA =     0.06284


       ATOMNUMBER= 62 Si         VCOUL-ZERO =  0.98706E-01
:EFG062:                        EFG         =     0.00000   *10**21  V / m**2
                               V20  TOT/SRF=     0.00000    -0.00000
                               V22  TOT/SRF=     0.00000    -0.00000
                               V22M TOT/SRF=    -0.00000    -0.00000
                               V21  TOT/SRF=    -0.00000    -0.00000
                               V21M TOT/SRF=    -0.00000    -0.00000

             -0.00000   -0.00000   -0.00000       -0.00000    0.00000    0.00000
             -0.00000   -0.00000   -0.00000        0.00000   -0.00000    0.00000
             -0.00000   -0.00000    0.00000        0.00000    0.00000    0.00000

         MAIN DIRECTIONS OF THE EFG   1.0000  0.9550 -0.0114
                                     -0.9551  1.0000 -0.0058
                                      0.0059  0.0167  1.0000
:ANG062:  ANGLE WITH OLD X-AXIS =        43.7

:ETA062:                         ASYMM. ETA =     0.01362


       ATOMNUMBER= 63 Si         VCOUL-ZERO =  0.98706E-01
:EFG063:                        EFG         =     0.00000   *10**21  V / m**2
                               V20  TOT/SRF=     0.00000    -0.00000
                               V22  TOT/SRF=    -0.00000    -0.00000
                               V22M TOT/SRF=     0.00000     0.00000
                               V21  TOT/SRF=    -0.00000    -0.00000
                               V21M TOT/SRF=    -0.00000    -0.00000

             -0.00000    0.00000   -0.00000       -0.00000    0.00000    0.00000
              0.00000   -0.00000   -0.00000        0.00000    0.00000    0.00000
             -0.00000   -0.00000    0.00000        0.00000    0.00000   -0.00000

         MAIN DIRECTIONS OF THE EFG   1.0000 -0.0013  0.1213
                                     -0.1213 -0.0031  1.0000
                                      0.0009  1.0000  0.0033
:ANG063:  ANGLE WITH OLD X-AXIS =         6.9

:ETA063:                         ASYMM. ETA =     0.01620


       ATOMNUMBER= 64 Si         VCOUL-ZERO =  0.98706E-01
:EFG064:                        EFG         =     0.00000   *10**21  V / m**2
                               V20  TOT/SRF=     0.00000    -0.00000
                               V22  TOT/SRF=    -0.00000    -0.00000
                               V22M TOT/SRF=     0.00000     0.00000
                               V21  TOT/SRF=    -0.00000    -0.00000
                               V21M TOT/SRF=    -0.00000    -0.00000

             -0.00000    0.00000   -0.00000       -0.00000    0.00000    0.00000
              0.00000   -0.00000   -0.00000        0.00000   -0.00000    0.00000
             -0.00000   -0.00000    0.00000        0.00000    0.00000    0.00000

         MAIN DIRECTIONS OF THE EFG   1.0000  0.7410 -0.0025
                                     -0.7410  1.0000 -0.0045
                                     -0.0009  0.0063  1.0000
:ANG064:  ANGLE WITH OLD X-AXIS =        36.5

:ETA064:                         ASYMM. ETA =     0.00759


     HELLMANN-FEYNMAN-FORCE IN mRy/a.u. = |F|  Fx       Fy             Fz
:FHF001:   1.ATOM      8.971605175636     -8.971605175636      0.000001033360      0.000001516016

     HELLMANN-FEYNMAN-FORCE IN mRy/a.u. = |F|  Fx       Fy             Fz
:FHF002:   2.ATOM      0.003769924928      0.003769924611     -0.000000250624     -0.000001524667

     HELLMANN-FEYNMAN-FORCE IN mRy/a.u. = |F|  Fx       Fy             Fz
:FHF003:   3.ATOM      0.000200832074     -0.000200826161      0.000000224368      0.000001524688

     HELLMANN-FEYNMAN-FORCE IN mRy/a.u. = |F|  Fx       Fy             Fz
:FHF004:   4.ATOM      0.000067334686     -0.000067317059     -0.000000221032     -0.000001524652

     HELLMANN-FEYNMAN-FORCE IN mRy/a.u. = |F|  Fx       Fy             Fz
:FHF005:   5.ATOM      0.000182020195     -0.000182013696     -0.000000203066     -0.000001524684

     HELLMANN-FEYNMAN-FORCE IN mRy/a.u. = |F|  Fx       Fy             Fz
:FHF006:   6.ATOM      0.000083963239     -0.000083949141      0.000000206424      0.000001524670

     HELLMANN-FEYNMAN-FORCE IN mRy/a.u. = |F|  Fx       Fy             Fz
:FHF007:   7.ATOM      0.000001847339     -0.000001021963     -0.000000208749     -0.000001524689

     HELLMANN-FEYNMAN-FORCE IN mRy/a.u. = |F|  Fx       Fy             Fz
:FHF008:   8.ATOM      0.000002983721     -0.000002556091      0.000000210578      0.000001524678

     HELLMANN-FEYNMAN-FORCE IN mRy/a.u. = |F|  Fx       Fy             Fz
:FHF009:   9.ATOM      0.006642847607      0.000172955377      0.006325055242     -0.002022668275

     HELLMANN-FEYNMAN-FORCE IN mRy/a.u. = |F|  Fx       Fy             Fz
:FHF010:  10.ATOM      0.000508847245      0.000285712256     -0.000397467349      0.000138973854

     HELLMANN-FEYNMAN-FORCE IN mRy/a.u. = |F|  Fx       Fy             Fz
:FHF011:  11.ATOM      5.232951148223      2.118310471463     -3.382939003379     -3.384119112205

     HELLMANN-FEYNMAN-FORCE IN mRy/a.u. = |F|  Fx       Fy             Fz
:FHF012:  12.ATOM      0.020183000990      0.017898020686      0.006600739437      0.006591253550

     HELLMANN-FEYNMAN-FORCE IN mRy/a.u. = |F|  Fx       Fy             Fz
:FHF013:  13.ATOM      0.000090152814     -0.000088910920      0.000008342964      0.000012360145

     HELLMANN-FEYNMAN-FORCE IN mRy/a.u. = |F|  Fx       Fy             Fz
:FHF014:  14.ATOM      0.000120070314      0.000115355256     -0.000025716309     -0.000021182934

     HELLMANN-FEYNMAN-FORCE IN mRy/a.u. = |F|  Fx       Fy             Fz
:FHF015:  15.ATOM      0.006623210339      0.000191617307     -0.002003275045      0.006310078216

     HELLMANN-FEYNMAN-FORCE IN mRy/a.u. = |F|  Fx       Fy             Fz
:FHF016:  16.ATOM      0.000501145633      0.000273612990      0.000138482529     -0.000396365319

     HELLMANN-FEYNMAN-FORCE IN mRy/a.u. = |F|  Fx       Fy             Fz
:FHF017:  17.ATOM      0.012579582071     -0.012579512727     -0.000037712980      0.000017954333

     HELLMANN-FEYNMAN-FORCE IN mRy/a.u. = |F|  Fx       Fy             Fz
:FHF018:  18.ATOM      0.000127920163      0.000125014159     -0.000020739165      0.000017461819

     HELLMANN-FEYNMAN-FORCE IN mRy/a.u. = |F|  Fx       Fy             Fz
:FHF019:  19.ATOM      0.012528754668     -0.012528421420      0.000070895474      0.000057654765

     HELLMANN-FEYNMAN-FORCE IN mRy/a.u. = |F|  Fx       Fy             Fz
:FHF020:  20.ATOM      0.000158472450      0.000122371811      0.000077026782      0.000064850075

     HELLMANN-FEYNMAN-FORCE IN mRy/a.u. = |F|  Fx       Fy             Fz
:FHF021:  21.ATOM      0.012528323835     -0.012527990785     -0.000070858511     -0.000057654834

     HELLMANN-FEYNMAN-FORCE IN mRy/a.u. = |F|  Fx       Fy             Fz
:FHF022:  22.ATOM      0.000158151987      0.000121943243     -0.000077047804     -0.000064850076

     HELLMANN-FEYNMAN-FORCE IN mRy/a.u. = |F|  Fx       Fy             Fz
:FHF023:  23.ATOM      0.012579157133     -0.012579087676      0.000037749776     -0.000017954349

     HELLMANN-FEYNMAN-FORCE IN mRy/a.u. = |F|  Fx       Fy             Fz
:FHF024:  24.ATOM      0.000127499964      0.000124587653      0.000020718149     -0.000017461842

     HELLMANN-FEYNMAN-FORCE IN mRy/a.u. = |F|  Fx       Fy             Fz
:FHF025:  25.ATOM      5.232955245358      2.118312470833      3.382940886064      3.384122314166

     HELLMANN-FEYNMAN-FORCE IN mRy/a.u. = |F|  Fx       Fy             Fz
:FHF026:  26.ATOM      0.020183020072      0.017896146213     -0.006602648503     -0.006594488815

     HELLMANN-FEYNMAN-FORCE IN mRy/a.u. = |F|  Fx       Fy             Fz
:FHF027:  27.ATOM      0.006642107211      0.000174787241     -0.006323191064      0.002025905327

     HELLMANN-FEYNMAN-FORCE IN mRy/a.u. = |F|  Fx       Fy             Fz
:FHF028:  28.ATOM      0.000507258426      0.000283873297      0.000395604947     -0.000142210364

     HELLMANN-FEYNMAN-FORCE IN mRy/a.u. = |F|  Fx       Fy             Fz
:FHF029:  29.ATOM      0.006625686788      0.000189774962      0.002001443771     -0.006313314004

     HELLMANN-FEYNMAN-FORCE IN mRy/a.u. = |F|  Fx       Fy             Fz
:FHF030:  30.ATOM      0.000504213084      0.000275457759     -0.000136647995      0.000399601280

     HELLMANN-FEYNMAN-FORCE IN mRy/a.u. = |F|  Fx       Fy             Fz
:FHF031:  31.ATOM      0.000092655426     -0.000090763868     -0.000010182958     -0.000015596655

     HELLMANN-FEYNMAN-FORCE IN mRy/a.u. = |F|  Fx       Fy             Fz
:FHF032:  32.ATOM      0.000122855078      0.000117207321      0.000027559265      0.000024419276

     HELLMANN-FEYNMAN-FORCE IN mRy/a.u. = |F|  Fx       Fy             Fz
:FHF033:  33.ATOM      0.092574644556      0.058734102458     -0.000072127063      0.071556724497

     HELLMANN-FEYNMAN-FORCE IN mRy/a.u. = |F|  Fx       Fy             Fz
:FHF034:  34.ATOM      0.090278442086      0.057463799117     -0.000153858860     -0.069628192738

     HELLMANN-FEYNMAN-FORCE IN mRy/a.u. = |F|  Fx       Fy             Fz
:FHF035:  35.ATOM      0.000141685109      0.000067700192      0.000092517207      0.000083258156

     HELLMANN-FEYNMAN-FORCE IN mRy/a.u. = |F|  Fx       Fy             Fz
:FHF036:  36.ATOM      0.000100573090      0.000023342249      0.000097517913     -0.000007768046

     HELLMANN-FEYNMAN-FORCE IN mRy/a.u. = |F|  Fx       Fy             Fz
:FHF037:  37.ATOM      0.092579862597      0.058742327762      0.000072099923     -0.071556723578

     HELLMANN-FEYNMAN-FORCE IN mRy/a.u. = |F|  Fx       Fy             Fz
:FHF038:  38.ATOM      0.090273205026      0.057455572271      0.000153837704      0.069628191809

     HELLMANN-FEYNMAN-FORCE IN mRy/a.u. = |F|  Fx       Fy             Fz
:FHF039:  39.ATOM      0.000145793721      0.000075926086     -0.000092515498     -0.000083258159

     HELLMANN-FEYNMAN-FORCE IN mRy/a.u. = |F|  Fx       Fy             Fz
:FHF040:  40.ATOM      0.000098988017      0.000015116306     -0.000097518117      0.000007767991

     HELLMANN-FEYNMAN-FORCE IN mRy/a.u. = |F|  Fx       Fy             Fz
:FHF041:  41.ATOM      0.006912194330      0.000239269451     -0.006565928124     -0.002147037133

     HELLMANN-FEYNMAN-FORCE IN mRy/a.u. = |F|  Fx       Fy             Fz
:FHF042:  42.ATOM      0.000354636634      0.000170187716      0.000292825568      0.000105149752

     HELLMANN-FEYNMAN-FORCE IN mRy/a.u. = |F|  Fx       Fy             Fz
:FHF043:  43.ATOM      5.306698462530      2.121092912183      3.439903771025     -3.439342302853

     HELLMANN-FEYNMAN-FORCE IN mRy/a.u. = |F|  Fx       Fy             Fz
:FHF044:  44.ATOM      0.019405103240      0.017262197396     -0.006256559741      0.006279333805

     HELLMANN-FEYNMAN-FORCE IN mRy/a.u. = |F|  Fx       Fy             Fz
:FHF045:  45.ATOM      0.000145278466     -0.000045115943     -0.000099474178      0.000095787642

     HELLMANN-FEYNMAN-FORCE IN mRy/a.u. = |F|  Fx       Fy             Fz
:FHF046:  46.ATOM      0.000094044197      0.000091205597     -0.000017967453      0.000014248532

     HELLMANN-FEYNMAN-FORCE IN mRy/a.u. = |F|  Fx       Fy             Fz
:FHF047:  47.ATOM      0.006903299962      0.000249013976      0.002149345351      0.006555444833

     HELLMANN-FEYNMAN-FORCE IN mRy/a.u. = |F|  Fx       Fy             Fz
:FHF048:  48.ATOM      0.000346658186      0.000164349131     -0.000090696155     -0.000291436903

     HELLMANN-FEYNMAN-FORCE IN mRy/a.u. = |F|  Fx       Fy             Fz
:FHF049:  49.ATOM      0.092616901583      0.058765694803     -0.071585459641      0.000074439392

     HELLMANN-FEYNMAN-FORCE IN mRy/a.u. = |F|  Fx       Fy             Fz
:FHF050:  50.ATOM      0.090424441470      0.057522811076      0.069768829089      0.000127705520

     HELLMANN-FEYNMAN-FORCE IN mRy/a.u. = |F|  Fx       Fy             Fz
:FHF051:  51.ATOM      0.092623292755      0.058765765558      0.071593666198     -0.000078227668

     HELLMANN-FEYNMAN-FORCE IN mRy/a.u. = |F|  Fx       Fy             Fz
:FHF052:  52.ATOM      0.090430768411      0.057522750279     -0.069777085926     -0.000123917297

     HELLMANN-FEYNMAN-FORCE IN mRy/a.u. = |F|  Fx       Fy             Fz
:FHF053:  53.ATOM      0.000144629464      0.000072441417     -0.000087390225     -0.000089626288

     HELLMANN-FEYNMAN-FORCE IN mRy/a.u. = |F|  Fx       Fy             Fz
:FHF054:  54.ATOM      0.000101420905      0.000016954115     -0.000001892883     -0.000099975872

     HELLMANN-FEYNMAN-FORCE IN mRy/a.u. = |F|  Fx       Fy             Fz
:FHF055:  55.ATOM      0.000142273655      0.000072446296      0.000079165295      0.000093414042

     HELLMANN-FEYNMAN-FORCE IN mRy/a.u. = |F|  Fx       Fy             Fz
:FHF056:  56.ATOM      0.000098192759      0.000016949365      0.000010119555      0.000096188001

     HELLMANN-FEYNMAN-FORCE IN mRy/a.u. = |F|  Fx       Fy             Fz
:FHF057:  57.ATOM      5.306692834461      2.121086785071     -3.439897734564      3.439343435201

     HELLMANN-FEYNMAN-FORCE IN mRy/a.u. = |F|  Fx       Fy             Fz
:FHF058:  58.ATOM      0.019408866202      0.017268189109      0.006250529657     -0.006280494499

     HELLMANN-FEYNMAN-FORCE IN mRy/a.u. = |F|  Fx       Fy             Fz
:FHF059:  59.ATOM      0.006918043697      0.000233312854      0.006571919920      0.002148199773

     HELLMANN-FEYNMAN-FORCE IN mRy/a.u. = |F|  Fx       Fy             Fz
:FHF060:  60.ATOM      0.000362795519      0.000176151377     -0.000298812756     -0.000106311890

     HELLMANN-FEYNMAN-FORCE IN mRy/a.u. = |F|  Fx       Fy             Fz
:FHF061:  61.ATOM      0.006906475930      0.000254979962     -0.002155299949     -0.006556605610

     HELLMANN-FEYNMAN-FORCE IN mRy/a.u. = |F|  Fx       Fy             Fz
:FHF062:  62.ATOM      0.000346468153      0.000158380690      0.000096654039      0.000292598249

     HELLMANN-FEYNMAN-FORCE IN mRy/a.u. = |F|  Fx       Fy             Fz
:FHF063:  63.ATOM      0.000140270259     -0.000039140675      0.000093512007     -0.000096949769

     HELLMANN-FEYNMAN-FORCE IN mRy/a.u. = |F|  Fx       Fy             Fz
:FHF064:  64.ATOM      0.000089489571      0.000085231122      0.000023932829     -0.000013086592

:FIT001: LUSE= 13 SIGMA OF V-XC FIT FOR ATOM  1  0.6395096E-03
:FIT001: LUSE= 13 SIGMA OF V-XC FIT FOR ATOM  1  0.6395096E-03
:FIT002: LUSE= 13 SIGMA OF V-XC FIT FOR ATOM  2  0.7057292E-03
:FIT002: LUSE= 13 SIGMA OF V-XC FIT FOR ATOM  2  0.7057292E-03
:FIT003: LUSE= 13 SIGMA OF V-XC FIT FOR ATOM  3  0.7057844E-03
:FIT003: LUSE= 13 SIGMA OF V-XC FIT FOR ATOM  3  0.7057844E-03
:FIT004: LUSE= 13 SIGMA OF V-XC FIT FOR ATOM  4  0.7057766E-03
:FIT004: LUSE= 13 SIGMA OF V-XC FIT FOR ATOM  4  0.7057766E-03
:FIT005: LUSE= 13 SIGMA OF V-XC FIT FOR ATOM  5  0.7057910E-03
:FIT005: LUSE= 13 SIGMA OF V-XC FIT FOR ATOM  5  0.7057910E-03
:FIT006: LUSE= 13 SIGMA OF V-XC FIT FOR ATOM  6  0.7057832E-03
:FIT006: LUSE= 13 SIGMA OF V-XC FIT FOR ATOM  6  0.7057832E-03
:FIT007: LUSE= 13 SIGMA OF V-XC FIT FOR ATOM  7  0.7057877E-03
:FIT007: LUSE= 13 SIGMA OF V-XC FIT FOR ATOM  7  0.7057877E-03
:FIT008: LUSE= 13 SIGMA OF V-XC FIT FOR ATOM  8  0.7057862E-03
:FIT008: LUSE= 13 SIGMA OF V-XC FIT FOR ATOM  8  0.7057862E-03
:FIT009: LUSE= 13 SIGMA OF V-XC FIT FOR ATOM  9  0.7057079E-03
:FIT009: LUSE= 13 SIGMA OF V-XC FIT FOR ATOM  9  0.7057079E-03
:FIT010: LUSE= 13 SIGMA OF V-XC FIT FOR ATOM 10  0.7058020E-03
:FIT010: LUSE= 13 SIGMA OF V-XC FIT FOR ATOM 10  0.7058020E-03
:FIT011: LUSE= 13 SIGMA OF V-XC FIT FOR ATOM 11  0.7061916E-03
:FIT011: LUSE= 13 SIGMA OF V-XC FIT FOR ATOM 11  0.7061916E-03
:FIT012: LUSE= 13 SIGMA OF V-XC FIT FOR ATOM 12  0.7048954E-03
:FIT012: LUSE= 13 SIGMA OF V-XC FIT FOR ATOM 12  0.7048954E-03
:FIT013: LUSE= 13 SIGMA OF V-XC FIT FOR ATOM 13  0.7057821E-03
:FIT013: LUSE= 13 SIGMA OF V-XC FIT FOR ATOM 13  0.7057821E-03
:FIT014: LUSE= 13 SIGMA OF V-XC FIT FOR ATOM 14  0.7057858E-03
:FIT014: LUSE= 13 SIGMA OF V-XC FIT FOR ATOM 14  0.7057858E-03
:FIT015: LUSE= 13 SIGMA OF V-XC FIT FOR ATOM 15  0.7057175E-03
:FIT015: LUSE= 13 SIGMA OF V-XC FIT FOR ATOM 15  0.7057175E-03
:FIT016: LUSE= 13 SIGMA OF V-XC FIT FOR ATOM 16  0.7057437E-03
:FIT016: LUSE= 13 SIGMA OF V-XC FIT FOR ATOM 16  0.7057437E-03
:FIT017: LUSE= 13 SIGMA OF V-XC FIT FOR ATOM 17  0.7057835E-03
:FIT017: LUSE= 13 SIGMA OF V-XC FIT FOR ATOM 17  0.7057835E-03
:FIT018: LUSE= 13 SIGMA OF V-XC FIT FOR ATOM 18  0.7057871E-03
:FIT018: LUSE= 13 SIGMA OF V-XC FIT FOR ATOM 18  0.7057871E-03
:FIT019: LUSE= 13 SIGMA OF V-XC FIT FOR ATOM 19  0.7054405E-03
:FIT019: LUSE= 13 SIGMA OF V-XC FIT FOR ATOM 19  0.7054405E-03
:FIT020: LUSE= 13 SIGMA OF V-XC FIT FOR ATOM 20  0.7057873E-03
:FIT020: LUSE= 13 SIGMA OF V-XC FIT FOR ATOM 20  0.7057873E-03
:FIT021: LUSE= 13 SIGMA OF V-XC FIT FOR ATOM 21  0.7054405E-03
:FIT021: LUSE= 13 SIGMA OF V-XC FIT FOR ATOM 21  0.7054405E-03
:FIT022: LUSE= 13 SIGMA OF V-XC FIT FOR ATOM 22  0.7057873E-03
:FIT022: LUSE= 13 SIGMA OF V-XC FIT FOR ATOM 22  0.7057873E-03
:FIT023: LUSE= 13 SIGMA OF V-XC FIT FOR ATOM 23  0.7057835E-03
[...]
:CTO048: CHARGE SPHERE 48    =    12.119183
:CTO049: CHARGE SPHERE 49    =    12.119228
:CTO050: CHARGE SPHERE 50    =    12.119168
:CTO051: CHARGE SPHERE 51    =    12.119228
:CTO052: CHARGE SPHERE 52    =    12.119168
:CTO053: CHARGE SPHERE 53    =    12.119201
:CTO054: CHARGE SPHERE 54    =    12.119196
:CTO055: CHARGE SPHERE 55    =    12.119201
:CTO056: CHARGE SPHERE 56    =    12.119196
:CTO057: CHARGE SPHERE 57    =    12.121085
:CTO058: CHARGE SPHERE 58    =    12.119200
:CTO059: CHARGE SPHERE 59    =    12.119198
:CTO060: CHARGE SPHERE 60    =    12.119183
:CTO061: CHARGE SPHERE 61    =    12.119198
:CTO062: CHARGE SPHERE 62    =    12.119183
:CTO063: CHARGE SPHERE 63    =    12.119166
:CTO064: CHARGE SPHERE 64    =    12.119201

:NEC03: NUCLEAR AND ELECTRONIC CHARGE    896.00000   896.00000

PW CHANGE     H    K    L             Current                    Change               Residue
:PTO001:      0    0    0  2.88685199E-02 0.00000000E+00  2.873E-09  0.000E+00  2.904E-09  0.000E+00
:PTO002:     -1    0    0 -1.76350694E-06 1.75942154E-06 -1.036E-10  6.154E-11 -6.402E-10  3.480E-10
:PTO003:      0   -1    0 -3.36250235E-09 3.36250103E-09  4.378E-11 -4.378E-11  2.686E-10 -2.686E-10
:PTO004:      0    0   -1  3.36267092E-09 3.36267111E-09 -4.226E-11 -4.226E-11 -2.603E-10 -2.603E-10
:PTO005:      0    0    1  3.36267092E-09-3.36267111E-09 -4.226E-11  4.226E-11 -2.603E-10  2.603E-10
:PTO006:      0    1    0 -3.36250235E-09-3.36250103E-09  4.378E-11  4.378E-11  2.686E-10  2.686E-10
:PTO007:      1    0    0 -1.76350694E-06-1.75942154E-06 -1.036E-10 -6.154E-11 -6.402E-10 -3.480E-10
:PTO008:     -1   -1    0  2.55883560E-09-2.28649664E-06  1.994E-10  4.316E-10  8.697E-10  1.882E-09
:PTO009:     -1    0   -1 -2.28649670E-06-2.55896167E-09  4.268E-10 -2.069E-10  1.861E-09 -9.028E-10
:PTO010:     -1    0    1 -2.55896986E-09 2.28649669E-06 -2.074E-10 -4.272E-10 -9.049E-10 -1.863E-09
:PTO011:     -1    1    0  2.28649664E-06 2.55883635E-09 -4.316E-10  1.994E-10 -1.882E-09  8.697E-10
:PTO012:      0   -1   -1  5.67527562E-08-6.94166350E-16 -1.603E-09  2.817E-15 -6.997E-09  1.216E-14

:ENE  : ********** TOTAL ENERGY IN Ry =       -37121.91521297

       TOTAL FORCE IN mRy/a.u. = |F|     Fx             Fy             Fz     with/without FOR in case.in2
:FOR001:   1.ATOM       6.445200      -6.445200       0.000000      -0.000000 total forces
:FOR002:   2.ATOM       0.007593       0.007593      -0.000000      -0.000000 total forces
:FOR003:   3.ATOM       0.018713       0.018713      -0.000000      -0.000000 total forces
:FOR004:   4.ATOM       0.002513       0.002513      -0.000000      -0.000000 total forces
:FOR005:   5.ATOM       0.018720       0.018720      -0.000000      -0.000000 total forces
:FOR006:   6.ATOM       0.002507       0.002507      -0.000000      -0.000000 total forces
:FOR007:   7.ATOM       0.179706      -0.179706      -0.000000      -0.000000 total forces
:FOR008:   8.ATOM       0.005032       0.005032      -0.000000      -0.000000 total forces
:FOR009:   9.ATOM       0.021070      -0.016378      -0.008282      -0.010350 total forces
:FOR010:  10.ATOM       0.017916       0.008176      -0.005215      -0.015065 total forces
:FOR011:  11.ATOM       2.188786       1.580619      -1.070612      -1.070615 total forces
:FOR012:  12.ATOM       0.010516       0.001943      -0.007311      -0.007305 total forces
:FOR013:  13.ATOM       0.094998       0.093040      -0.013571      -0.013567 total forces
:FOR014:  14.ATOM       0.021174      -0.016191      -0.009646      -0.009651 total forces
:FOR015:  15.ATOM       0.021069      -0.016380      -0.010346      -0.008279 total forces
:FOR016:  16.ATOM       0.017923       0.008178      -0.015070      -0.005220 total forces
:FOR017:  17.ATOM       0.226036      -0.220244       0.035950      -0.035954 total forces
:FOR018:  18.ATOM       0.006794       0.004928       0.003310      -0.003304 total forces
:FOR019:  19.ATOM       0.225146      -0.219613       0.035078       0.035074 total forces
:FOR020:  20.ATOM       0.007023       0.005070       0.003432       0.003439 total forces
:FOR021:  21.ATOM       0.225146      -0.219614      -0.035078      -0.035074 total forces
:FOR022:  22.ATOM       0.007023       0.005071      -0.003433      -0.003440 total forces
:FOR023:  23.ATOM       0.226037      -0.220244      -0.035950       0.035953 total forces
:FOR024:  24.ATOM       0.006795       0.004929      -0.003311       0.003304 total forces
:FOR025:  25.ATOM       2.188785       1.580619       1.070612       1.070614 total forces
:FOR026:  26.ATOM       0.010516       0.001943       0.007311       0.007306 total forces
:FOR027:  27.ATOM       0.021070      -0.016378       0.008282       0.010349 total forces
:FOR028:  28.ATOM       0.017916       0.008176       0.005215       0.015065 total forces
:FOR029:  29.ATOM       0.021069      -0.016380       0.010346       0.008279 total forces
:FOR030:  30.ATOM       0.017923       0.008178       0.015070       0.005220 total forces
:FOR031:  31.ATOM       0.094998       0.093040       0.013571       0.013567 total forces
:FOR032:  32.ATOM       0.021174      -0.016191       0.009646       0.009651 total forces
:FOR033:  33.ATOM       0.135132       0.087666      -0.035350       0.096570 total forces
:FOR034:  34.ATOM       0.134862       0.087725      -0.034757      -0.096353 total forces
:FOR035:  35.ATOM       0.024565       0.015653      -0.004470      -0.018397 total forces
:FOR036:  36.ATOM       0.024578       0.015437      -0.004475       0.018595 total forces
:FOR037:  37.ATOM       0.135132       0.087666       0.035350      -0.096570 total forces
:FOR038:  38.ATOM       0.134861       0.087726       0.034756       0.096352 total forces
:FOR039:  39.ATOM       0.024565       0.015653       0.004470       0.018397 total forces
:FOR040:  40.ATOM       0.024578       0.015437       0.004474      -0.018595 total forces
:FOR041:  41.ATOM       0.021272      -0.016583       0.008755      -0.010042 total forces
:FOR042:  42.ATOM       0.017760       0.008069       0.004979      -0.015017 total forces
:FOR043:  43.ATOM       2.230412       1.596550       1.101309      -1.101309 total forces
:FOR044:  44.ATOM       0.010698       0.001800       0.007456      -0.007458 total forces
:FOR045:  45.ATOM       0.095805       0.093813       0.013743      -0.013743 total forces
:FOR046:  46.ATOM       0.021138      -0.016336       0.009486      -0.009484 total forces
:FOR047:  47.ATOM       0.021265      -0.016574       0.010042      -0.008755 total forces
:FOR048:  48.ATOM       0.017754       0.008060       0.015015      -0.004978 total forces
:FOR049:  49.ATOM       0.135126       0.087661      -0.096566       0.035350 total forces
:FOR050:  50.ATOM       0.134863       0.087731       0.096350       0.034756 total forces
:FOR051:  51.ATOM       0.135126       0.087661       0.096565      -0.035350 total forces
:FOR052:  52.ATOM       0.134864       0.087731      -0.096351      -0.034757 total forces
:FOR053:  53.ATOM       0.024571       0.015658       0.018401       0.004470 total forces
:FOR054:  54.ATOM       0.024576       0.015431      -0.018597       0.004474 total forces
:FOR055:  55.ATOM       0.024572       0.015658      -0.018402      -0.004471 total forces
:FOR056:  56.ATOM       0.024576       0.015431       0.018596      -0.004474 total forces
:FOR057:  57.ATOM       2.230412       1.596551      -1.101309       1.101309 total forces
:FOR058:  58.ATOM       0.010698       0.001800      -0.007456       0.007458 total forces
:FOR059:  59.ATOM       0.021271      -0.016582      -0.008755       0.010042 total forces
:FOR060:  60.ATOM       0.017759       0.008068      -0.004979       0.015017 total forces
:FOR061:  61.ATOM       0.021265      -0.016574      -0.010042       0.008755 total forces
:FOR062:  62.ATOM       0.017754       0.008060      -0.015015       0.004978 total forces
:FOR063:  63.ATOM       0.095805       0.093813      -0.013743       0.013743 total forces
:FOR064:  64.ATOM       0.021137      -0.016336      -0.009486       0.009484 total forces
       TOTAL FORCE WITH RESPECT TO GLOBAL CARTESIAN COORDINATES:
:FCA001:   1.ATOM                     -6.445200       0.000000      -0.000000 total forces
:FCA002:   2.ATOM                      0.007593      -0.000000      -0.000000 total forces
:FCA003:   3.ATOM                      0.018713      -0.000000      -0.000000 total forces
:FCA004:   4.ATOM                      0.002513      -0.000000      -0.000000 total forces
:FCA005:   5.ATOM                      0.018720      -0.000000      -0.000000 total forces
:FCA006:   6.ATOM                      0.002507      -0.000000      -0.000000 total forces
:FCA007:   7.ATOM                     -0.179706      -0.000000      -0.000000 total forces
:FCA008:   8.ATOM                      0.005032      -0.000000      -0.000000 total forces
:FCA009:   9.ATOM                     -0.016378      -0.008282      -0.010350 total forces
:FCA010:  10.ATOM                      0.008176      -0.005215      -0.015065 total forces
:FCA011:  11.ATOM                      1.580619      -1.070612      -1.070615 total forces
:FCA012:  12.ATOM                      0.001943      -0.007311      -0.007305 total forces
:FCA013:  13.ATOM                      0.093040      -0.013571      -0.013567 total forces
:FCA014:  14.ATOM                     -0.016191      -0.009646      -0.009651 total forces
:FCA015:  15.ATOM                     -0.016380      -0.010346      -0.008279 total forces
:FCA016:  16.ATOM                      0.008178      -0.015070      -0.005220 total forces
:FCA017:  17.ATOM                     -0.220244       0.035950      -0.035954 total forces
:FCA018:  18.ATOM                      0.004928       0.003310      -0.003304 total forces
:FCA019:  19.ATOM                     -0.219613       0.035078       0.035074 total forces
:FCA020:  20.ATOM                      0.005070       0.003432       0.003439 total forces
:FCA021:  21.ATOM                     -0.219614      -0.035078      -0.035074 total forces
:FCA022:  22.ATOM                      0.005071      -0.003433      -0.003440 total forces
:FCA023:  23.ATOM                     -0.220244      -0.035950       0.035953 total forces
:FCA024:  24.ATOM                      0.004929      -0.003311       0.003304 total forces
:FCA025:  25.ATOM                      1.580619       1.070612       1.070614 total forces
:FCA026:  26.ATOM                      0.001943       0.007311       0.007306 total forces
:FCA027:  27.ATOM                     -0.016378       0.008282       0.010349 total forces
:FCA028:  28.ATOM                      0.008176       0.005215       0.015065 total forces
:FCA029:  29.ATOM                     -0.016380       0.010346       0.008279 total forces
:FCA030:  30.ATOM                      0.008178       0.015070       0.005220 total forces
:FCA031:  31.ATOM                      0.093040       0.013571       0.013567 total forces
:FCA032:  32.ATOM                     -0.016191       0.009646       0.009651 total forces
:FCA033:  33.ATOM                      0.087666      -0.035350       0.096570 total forces
:FCA034:  34.ATOM                      0.087725      -0.034757      -0.096353 total forces
:FCA035:  35.ATOM                      0.015653      -0.004470      -0.018397 total forces
:FCA036:  36.ATOM                      0.015437      -0.004475       0.018595 total forces
:FCA037:  37.ATOM                      0.087666       0.035350      -0.096570 total forces
:FCA038:  38.ATOM                      0.087726       0.034756       0.096352 total forces
:FCA039:  39.ATOM                      0.015653       0.004470       0.018397 total forces
:FCA040:  40.ATOM                      0.015437       0.004474      -0.018595 total forces
:FCA041:  41.ATOM                     -0.016583       0.008755      -0.010042 total forces
:FCA042:  42.ATOM                      0.008069       0.004979      -0.015017 total forces
:FCA043:  43.ATOM                      1.596550       1.101309      -1.101309 total forces
:FCA044:  44.ATOM                      0.001800       0.007456      -0.007458 total forces
:FCA045:  45.ATOM                      0.093813       0.013743      -0.013743 total forces
:FCA046:  46.ATOM                     -0.016336       0.009486      -0.009484 total forces
:FCA047:  47.ATOM                     -0.016574       0.010042      -0.008755 total forces
:FCA048:  48.ATOM                      0.008060       0.015015      -0.004978 total forces
:FCA049:  49.ATOM                      0.087661      -0.096566       0.035350 total forces
:FCA050:  50.ATOM                      0.087731       0.096350       0.034756 total forces
:FCA051:  51.ATOM                      0.087661       0.096565      -0.035350 total forces
:FCA052:  52.ATOM                      0.087731      -0.096351      -0.034757 total forces
:FCA053:  53.ATOM                      0.015658       0.018401       0.004470 total forces
:FCA054:  54.ATOM                      0.015431      -0.018597       0.004474 total forces
:FCA055:  55.ATOM                      0.015658      -0.018402      -0.004471 total forces
:FCA056:  56.ATOM                      0.015431       0.018596      -0.004474 total forces
:FCA057:  57.ATOM                      1.596551      -1.101309       1.101309 total forces
:FCA058:  58.ATOM                      0.001800      -0.007456       0.007458 total forces
:FCA059:  59.ATOM                     -0.016582      -0.008755       0.010042 total forces
:FCA060:  60.ATOM                      0.008068      -0.004979       0.015017 total forces
:FCA061:  61.ATOM                     -0.016574      -0.010042       0.008755 total forces
:FCA062:  62.ATOM                      0.008060      -0.015015       0.004978 total forces
:FCA063:  63.ATOM                      0.093813      -0.013743       0.013743 total forces
:FCA064:  64.ATOM                     -0.016336      -0.009486       0.009484 total forces
       TOTAL FORCE WITH RESPECT TO THE GLOBAL COORDINATE SYSTEM:
:FGL001:   1.ATOM                -6.445199916     0.000000017    -0.000000130 total forces
:FGL002:   2.ATOM                 0.007592923    -0.000000287    -0.000000137 total forces
:FGL003:   3.ATOM                 0.018713426    -0.000000264    -0.000000415 total forces
:FGL004:   4.ATOM                 0.002513000    -0.000000289    -0.000000139 total forces
:FGL005:   5.ATOM                 0.018719508    -0.000000289    -0.000000140 total forces
:FGL006:   6.ATOM                 0.002506859    -0.000000264    -0.000000416 total forces
:FGL007:   7.ATOM                -0.179705736    -0.000000288    -0.000000137 total forces
:FGL008:   8.ATOM                 0.005032372    -0.000000263    -0.000000413 total forces
:FGL009:   9.ATOM                -0.016378278    -0.008282358    -0.010349740 total forces
:FGL010:  10.ATOM                 0.008175678    -0.005215145    -0.015064728 total forces
:FGL011:  11.ATOM                 1.580619419    -1.070611546    -1.070614573 total forces
:FGL012:  12.ATOM                 0.001943068    -0.007310513    -0.007305304 total forces
:FGL013:  13.ATOM                 0.093039959    -0.013570576    -0.013567104 total forces
:FGL014:  14.ATOM                -0.016190727    -0.009645744    -0.009651111 total forces
:FGL015:  15.ATOM                -0.016380399    -0.010346438    -0.008279044 total forces
:FGL016:  16.ATOM                 0.008178001    -0.015069748    -0.005220421 total forces
:FGL017:  17.ATOM                -0.220244052     0.035949536    -0.035953686 total forces
:FGL018:  18.ATOM                 0.004928469     0.003309993    -0.003304091 total forces
:FGL019:  19.ATOM                -0.219613312     0.035077852     0.035073782 total forces
:FGL020:  20.ATOM                 0.005070309     0.003432438     0.003439181 total forces
:FGL021:  21.ATOM                -0.219613628    -0.035078407    -0.035074335 total forces
:FGL022:  22.ATOM                 0.005070625    -0.003432993    -0.003439735 total forces
:FGL023:  23.ATOM                -0.220244364    -0.035950086     0.035953134 total forces
:FGL024:  24.ATOM                 0.004928782    -0.003310544     0.003303540 total forces
:FGL025:  25.ATOM                 1.580619403     1.070611550     1.070614286 total forces
:FGL026:  26.ATOM                 0.001943089     0.007310515     0.007305601 total forces
:FGL027:  27.ATOM                -0.016378297     0.008282359     0.010349445 total forces
:FGL028:  28.ATOM                 0.008175697     0.005215145     0.015065024 total forces
:FGL029:  29.ATOM                -0.016380379     0.010346439     0.008279337 total forces
:FGL030:  30.ATOM                 0.008177981     0.015069750     0.005220124 total forces
:FGL031:  31.ATOM                 0.093039979     0.013570577     0.013567400 total forces
:FGL032:  32.ATOM                -0.016190748     0.009645742     0.009650816 total forces
:FGL033:  33.ATOM                 0.087666080    -0.035350117     0.096569575 total forces
:FGL034:  34.ATOM                 0.087725361    -0.034756949    -0.096352757 total forces
:FGL035:  35.ATOM                 0.015652866    -0.004470196    -0.018397163 total forces
:FGL036:  36.ATOM                 0.015436551    -0.004474649     0.018594684 total forces
:FGL037:  37.ATOM                 0.087665805     0.035349567    -0.096570126 total forces
:FGL038:  38.ATOM                 0.087725637     0.034756396     0.096352206 total forces
:FGL039:  39.ATOM                 0.015652590     0.004469643     0.018396611 total forces
:FGL040:  40.ATOM                 0.015436827     0.004474099    -0.018595236 total forces
:FGL041:  41.ATOM                -0.016582663     0.008755093    -0.010042210 total forces
:FGL042:  42.ATOM                 0.008068763     0.004979489    -0.015016650 total forces
:FGL043:  43.ATOM                 1.596550409     1.101309144    -1.101308654 total forces
:FGL044:  44.ATOM                 0.001800265     0.007455586    -0.007457890 total forces
:FGL045:  45.ATOM                 0.093813093     0.013742870    -0.013743285 total forces
:FGL046:  46.ATOM                -0.016336079     0.009486178    -0.009483917 total forces
:FGL047:  47.ATOM                -0.016574164     0.010042091    -0.008755180 total forces
:FGL048:  48.ATOM                 0.008060167     0.015014869    -0.004977744 total forces
:FGL049:  49.ATOM                 0.087660856    -0.096565727     0.035350001 total forces
:FGL050:  50.ATOM                 0.087730565     0.096350246     0.034755961 total forces
:FGL051:  51.ATOM                 0.087660856     0.096565196    -0.035350237 total forces
:FGL052:  52.ATOM                 0.087730564    -0.096350820    -0.034756828 total forces
:FGL053:  53.ATOM                 0.015658079     0.018400951     0.004469790 total forces
:FGL054:  54.ATOM                 0.015431467    -0.018596962     0.004473922 total forces
:FGL055:  55.ATOM                 0.015658080    -0.018401525    -0.004470657 total forces
:FGL056:  56.ATOM                 0.015431467     0.018596431    -0.004474160 total forces
:FGL057:  57.ATOM                 1.596550702    -1.101309163     1.101308677 total forces
:FGL058:  58.ATOM                 0.001799971    -0.007455562     0.007457873 total forces
:FGL059:  59.ATOM                -0.016582366    -0.008755118     0.010042228 total forces
:FGL060:  60.ATOM                 0.008068466    -0.004979468     0.015016630 total forces
:FGL061:  61.ATOM                -0.016574460    -0.010042071     0.008755157 total forces
:FGL062:  62.ATOM                 0.008060464    -0.015014893     0.004977760 total forces
:FGL063:  63.ATOM                 0.093812799    -0.013742846     0.013743267 total forces
:FGL064:  64.ATOM                -0.016335785    -0.009486199     0.009483937 total forces
:FCHECK:   Sum of forces         -0.000008054    -0.000008546    -0.000008544
