# Structure data of Fe (2x2x2 conventional) 


16 atoms
1 atom types

0.0 5.680103302 xlo xhi
0.0 5.680103302 ylo yhi
0.0 5.680103302 zlo zhi

Masses

1 55.845  # Fe

Atoms  # atomic

1 1 0.0 0.0 0.0
2 1 0.0 0.0 2.840051651
3 1 0.0 2.840051651 0.0
4 1 0.0 2.840051651 2.840051651
5 1 2.840051651 0.0 0.0
6 1 2.840051651 0.0 2.840051651
7 1 2.840051651 2.840051651 0.0
8 1 2.840051651 2.840051651 2.840051651
9 1 1.4200258255 1.4200258255 1.4200258255
10 1 1.4200258255 1.4200258255 4.2600774765
11 1 1.4200258255 4.2600774765 1.4200258255
12 1 1.4200258255 4.2600774765 4.2600774765
13 1 4.2600774765 1.4200258255 1.4200258255
14 1 4.2600774765 1.4200258255 4.2600774765
15 1 4.2600774765 4.2600774765 1.4200258255
16 1 4.2600774765 4.2600774765 4.2600774765
