# Structure data of W (2x2x2 conventional) 

16 atoms
1 atom types

0.0 6.3406310081 xlo xhi
0.0 6.3406310081 ylo yhi
0.0 6.3406310081 zlo zhi
0.000000    0.000000    0.000000   xy xz yz

Masses

1 183.84  # W

Atoms  # atomic

1 1 0.0 0.0 0.0
2 1 0.0 0.0 3.170315504
3 1 0.0 3.170315504 0.0
4 1 0.0 3.170315504 3.170315504
5 1 3.170315504 0.0 0.0
6 1 3.170315504 0.0 3.170315504
7 1 3.170315504 3.170315504 0.0
8 1 3.170315504 3.170315504 3.170315504
9 1 1.585157752 1.585157752 1.585157752
10 1 1.585157752 1.585157752 4.7554732561
11 1 1.585157752 4.7554732561 1.585157752
12 1 1.585157752 4.7554732561 4.7554732561
13 1 4.7554732561 1.585157752 1.585157752
14 1 4.7554732561 1.585157752 4.7554732561
15 1 4.7554732561 4.7554732561 1.585157752
16 1 4.7554732561 4.7554732561 4.7554732561
