# Structure data of PbTe (2x2x2 conventional) 

64 atoms
2 atom types

0.0 13.1313476563 xlo xhi
0.0 13.1313476563 ylo yhi
0.0 13.1313476563 zlo zhi
0.000000    0.000000    0.000000   xy xz yz

Masses

1 127.6  # Te
2 207.2  # Pb

Atoms  # atomic

1 1 3.2828369141 0.0 0.0
2 1 3.2828369141 0.0 6.5656738281
3 1 3.2828369141 6.5656738281 0.0
4 1 3.2828369141 6.5656738281 6.5656738281
5 1 9.8485107422 0.0 0.0
6 1 9.8485107422 0.0 6.5656738281
7 1 9.8485107422 6.5656738281 0.0
8 1 9.8485107422 6.5656738281 6.5656738281
9 1 3.2828369141 3.2828369141 3.2828369141
10 1 3.2828369141 3.2828369141 9.8485107422
11 1 3.2828369141 9.8485107422 3.2828369141
12 1 3.2828369141 9.8485107422 9.8485107422
13 1 9.8485107422 3.2828369141 3.2828369141
14 1 9.8485107422 3.2828369141 9.8485107422
15 1 9.8485107422 9.8485107422 3.2828369141
16 1 9.8485107422 9.8485107422 9.8485107422
17 1 0.0 0.0 3.2828369141
18 1 0.0 0.0 9.8485107422
19 1 0.0 6.5656738281 3.2828369141
20 1 0.0 6.5656738281 9.8485107422
21 1 6.5656738281 0.0 3.2828369141
22 1 6.5656738281 0.0 9.8485107422
23 1 6.5656738281 6.5656738281 3.2828369141
24 1 6.5656738281 6.5656738281 9.8485107422
25 1 0.0 3.2828369141 0.0
26 1 0.0 3.2828369141 6.5656738281
27 1 0.0 9.8485107422 0.0
28 1 0.0 9.8485107422 6.5656738281
29 1 6.5656738281 3.2828369141 0.0
30 1 6.5656738281 3.2828369141 6.5656738281
31 1 6.5656738281 9.8485107422 0.0
32 1 6.5656738281 9.8485107422 6.5656738281
33 2 0.0 0.0 0.0
34 2 0.0 0.0 6.5656738281
35 2 0.0 6.5656738281 0.0
36 2 0.0 6.5656738281 6.5656738281
37 2 6.5656738281 0.0 0.0
38 2 6.5656738281 0.0 6.5656738281
39 2 6.5656738281 6.5656738281 0.0
40 2 6.5656738281 6.5656738281 6.5656738281
41 2 0.0 3.2828369141 3.2828369141
42 2 0.0 3.2828369141 9.8485107422
43 2 0.0 9.8485107422 3.2828369141
44 2 0.0 9.8485107422 9.8485107422
45 2 6.5656738281 3.2828369141 3.2828369141
46 2 6.5656738281 3.2828369141 9.8485107422
47 2 6.5656738281 9.8485107422 3.2828369141
48 2 6.5656738281 9.8485107422 9.8485107422
49 2 3.2828369141 0.0 3.2828369141
50 2 3.2828369141 0.0 9.8485107422
51 2 3.2828369141 6.5656738281 3.2828369141
52 2 3.2828369141 6.5656738281 9.8485107422
53 2 9.8485107422 0.0 3.2828369141
54 2 9.8485107422 0.0 9.8485107422
55 2 9.8485107422 6.5656738281 3.2828369141
56 2 9.8485107422 6.5656738281 9.8485107422
57 2 3.2828369141 3.2828369141 0.0
58 2 3.2828369141 3.2828369141 6.5656738281
59 2 3.2828369141 9.8485107422 0.0
60 2 3.2828369141 9.8485107422 6.5656738281
61 2 9.8485107422 3.2828369141 0.0
62 2 9.8485107422 3.2828369141 6.5656738281
63 2 9.8485107422 9.8485107422 0.0
64 2 9.8485107422 9.8485107422 6.5656738281
