# Structure data of Ni (2x2x2 conventional) 

32 atoms
1 atom types

0.0 7.0115962029 xlo xhi
0.0 7.0115962029 ylo yhi
0.0 7.0115962029 zlo zhi
0.000000    0.000000    0.000000   xy xz yz

Masses

1 58.6934  # Ni

Atoms  # atomic

1 1 0.0 0.0 0.0
2 1 0.0 0.0 3.5057981014
3 1 0.0 3.5057981014 0.0
4 1 0.0 3.5057981014 3.5057981014
5 1 3.5057981014 0.0 0.0
6 1 3.5057981014 0.0 3.5057981014
7 1 3.5057981014 3.5057981014 0.0
8 1 3.5057981014 3.5057981014 3.5057981014
9 1 0.0 1.7528990507 1.7528990507
10 1 0.0 1.7528990507 5.2586971522
11 1 0.0 5.2586971522 1.7528990507
12 1 0.0 5.2586971522 5.2586971522
13 1 3.5057981014 1.7528990507 1.7528990507
14 1 3.5057981014 1.7528990507 5.2586971522
15 1 3.5057981014 5.2586971522 1.7528990507
16 1 3.5057981014 5.2586971522 5.2586971522
17 1 1.7528990507 0.0 1.7528990507
18 1 1.7528990507 0.0 5.2586971522
19 1 1.7528990507 3.5057981014 1.7528990507
20 1 1.7528990507 3.5057981014 5.2586971522
21 1 5.2586971522 0.0 1.7528990507
22 1 5.2586971522 0.0 5.2586971522
23 1 5.2586971522 3.5057981014 1.7528990507
24 1 5.2586971522 3.5057981014 5.2586971522
25 1 1.7528990507 1.7528990507 0.0
26 1 1.7528990507 1.7528990507 3.5057981014
27 1 1.7528990507 5.2586971522 0.0
28 1 1.7528990507 5.2586971522 3.5057981014
29 1 5.2586971522 1.7528990507 0.0
30 1 5.2586971522 1.7528990507 3.5057981014
31 1 5.2586971522 5.2586971522 0.0
32 1 5.2586971522 5.2586971522 3.5057981014
