# Structure data of Bi2Te3 (2x2x2 conventional) 

120 atoms
2 atom types

0.0 8.8989801407 xlo xhi
0.0 7.7067422771 ylo yhi
0.0 62.3017463684 zlo zhi
-4.4494910966 0.0 0.0 xy xz yz

Masses

1 208.98038  # Bi
2 127.6  # Te

Atoms  # atomic

1 1 -3.3763385332e-07 2.5689141669 8.3300450922
2 1 -3.3763385332e-07 2.5689141669 39.4809182764
3 1 -2.2247460194 6.4222855366 8.3300450922
4 1 -2.2247460194 6.4222855366 39.4809182764
5 1 4.4494898662 2.5689141669 8.3300450922
6 1 4.4494898662 2.5689141669 39.4809182764
7 1 2.2247441844 6.4222855366 8.3300450922
8 1 2.2247441844 6.4222855366 39.4809182764
9 1 -3.3763385332e-07 2.5689141669 2.0535798217
10 1 -3.3763385332e-07 2.5689141669 33.2044536912
11 1 -2.2247460194 6.4222855366 2.0535798217
12 1 -2.2247460194 6.4222855366 33.2044536912
13 1 4.4494898662 2.5689141669 2.0535798217
14 1 4.4494898662 2.5689141669 33.2044536912
15 1 2.2247441844 6.4222855366 2.0535798217
16 1 2.2247441844 6.4222855366 33.2044536912
17 1 0.0 0.0 18.7136688847
18 1 0.0 0.0 49.8645439379
19 1 -2.2247455483 3.8533711386 18.7136688847
20 1 -2.2247455483 3.8533711386 49.8645439379
21 1 4.4494900704 0.0 18.7136688847
22 1 4.4494900704 0.0 49.8645439379
23 1 2.2247445221 3.8533711386 18.7136688847
24 1 2.2247445221 3.8533711386 49.8645439379
25 1 0.0 0.0 12.4372042995
26 1 0.0 0.0 43.5880756147
27 1 -2.2247455483 3.8533711386 12.4372042995
28 1 -2.2247455483 3.8533711386 43.5880756147
29 1 4.4494900704 0.0 12.4372042995
30 1 4.4494900704 0.0 43.5880756147
31 1 2.2247445221 3.8533711386 12.4372042995
32 1 2.2247445221 3.8533711386 43.5880756147
33 1 2.2247449264 1.2844570873 29.0972926772
34 1 2.2247449264 1.2844570873 60.2481658614
35 1 -6.8861617741e-07 5.1378283414 29.0972926772
36 1 -6.8861617741e-07 5.1378283414 60.2481658614
37 1 6.6742352637 1.2844570873 29.0972926772
38 1 6.6742352637 1.2844570873 60.2481658614
39 1 4.4494896487 5.1378283414 29.0972926772
40 1 4.4494896487 5.1378283414 60.2481658614
41 1 2.2247449264 1.2844570873 22.820828092
42 1 2.2247449264 1.2844570873 53.9717012762
43 1 -6.8861617741e-07 5.1378283414 22.820828092
44 1 -6.8861617741e-07 5.1378283414 53.9717012762
45 1 6.6742352637 1.2844570873 22.820828092
46 1 6.6742352637 1.2844570873 53.9717012762
47 1 4.4494896487 5.1378283414 22.820828092
48 1 4.4494896487 5.1378283414 53.9717012762
49 2 2.2247449264 1.2844570873 3.7844987744
50 2 2.2247449264 1.2844570873 34.9353705256
51 2 -6.8861617741e-07 5.1378283414 3.7844987744
52 2 -6.8861617741e-07 5.1378283414 34.9353705256
53 2 6.6742352637 1.2844570873 3.7844987744
54 2 6.6742352637 1.2844570873 34.9353705256
55 2 4.4494896487 5.1378283414 3.7844987744
56 2 4.4494896487 5.1378283414 34.9353705256
57 2 0.0 0.0 0.0
58 2 0.0 0.0 31.1508731842
59 2 -2.2247455483 3.8533711386 0.0
60 2 -2.2247455483 3.8533711386 31.1508731842
61 2 4.4494900704 0.0 0.0
62 2 4.4494900704 0.0 31.1508731842
63 2 2.2247445221 3.8533711386 0.0
64 2 2.2247445221 3.8533711386 31.1508731842
65 2 0.0 0.0 6.5991255165
66 2 0.0 0.0 37.7499977662
67 2 -2.2247455483 3.8533711386 6.5991255165
68 2 -2.2247455483 3.8533711386 37.7499977662
69 2 4.4494900704 0.0 6.5991255165
70 2 4.4494900704 0.0 37.7499977662
71 2 2.2247445221 3.8533711386 6.5991255165
72 2 2.2247445221 3.8533711386 37.7499977662
73 2 -3.3763385332e-07 2.5689141669 14.168123003
74 2 -3.3763385332e-07 2.5689141669 45.3189961872
75 2 -2.2247460194 6.4222855366 14.168123003
76 2 -2.2247460194 6.4222855366 45.3189961872
77 2 4.4494898662 2.5689141669 14.168123003
78 2 4.4494898662 2.5689141669 45.3189961872
79 2 2.2247441844 6.4222855366 14.168123003
80 2 2.2247441844 6.4222855366 45.3189961872
81 2 2.2247449264 1.2844570873 10.383624727
82 2 2.2247449264 1.2844570873 41.5344988457
83 2 -6.8861617741e-07 5.1378283414 10.383624727
84 2 -6.8861617741e-07 5.1378283414 41.5344988457
85 2 6.6742352637 1.2844570873 10.383624727
86 2 6.6742352637 1.2844570873 41.5344988457
87 2 4.4494896487 5.1378283414 10.383624727
88 2 4.4494896487 5.1378283414 41.5344988457
89 2 2.2247449264 1.2844570873 16.9827501812
90 2 2.2247449264 1.2844570873 48.1336233654
91 2 -6.8861617741e-07 5.1378283414 16.9827501812
92 2 -6.8861617741e-07 5.1378283414 48.1336233654
93 2 6.6742352637 1.2844570873 16.9827501812
94 2 6.6742352637 1.2844570873 48.1336233654
95 2 4.4494896487 5.1378283414 16.9827501812
96 2 4.4494896487 5.1378283414 48.1336233654
97 2 0.0 0.0 24.5517467331
98 2 0.0 0.0 55.7026217864
99 2 -2.2247455483 3.8533711386 24.5517467331
100 2 -2.2247455483 3.8533711386 55.7026217864
101 2 4.4494900704 0.0 24.5517467331
102 2 4.4494900704 0.0 55.7026217864
103 2 2.2247445221 3.8533711386 24.5517467331
104 2 2.2247445221 3.8533711386 55.7026217864
105 2 -3.3763385332e-07 2.5689141669 20.7672493917
106 2 -3.3763385332e-07 2.5689141669 51.918124445
107 2 -2.2247460194 6.4222855366 20.7672493917
108 2 -2.2247460194 6.4222855366 51.918124445
109 2 4.4494898662 2.5689141669 20.7672493917
110 2 4.4494898662 2.5689141669 51.918124445
111 2 2.2247441844 6.4222855366 20.7672493917
112 2 2.2247441844 6.4222855366 51.918124445
113 2 -3.3763385332e-07 2.5689141669 27.3663739737
114 2 -3.3763385332e-07 2.5689141669 58.517249027
115 2 -2.2247460194 6.4222855366 27.3663739737
116 2 -2.2247460194 6.4222855366 58.517249027
117 2 4.4494898662 2.5689141669 27.3663739737
118 2 4.4494898662 2.5689141669 58.517249027
119 2 2.2247441844 6.4222855366 27.3663739737
120 2 2.2247441844 6.4222855366 58.517249027
