# Structure data of FeS2 Pa-3 (2x2x2 conventional) 

96 atoms
2 atom types

0.0 10.8076219559 xlo xhi
0.0 10.8076219559 ylo yhi
0.0 10.8076219559 zlo zhi
0.000000    0.000000    0.000000   xy xz yz

Masses

1 55.845  # Fe
2 32.065  # S

Atoms  # atomic

1 1 0.0 2.701905489 2.701905489
2 1 0.0 2.701905489 8.1057164669
3 1 0.0 8.1057164669 2.701905489
4 1 0.0 8.1057164669 8.1057164669
5 1 5.403810978 2.701905489 2.701905489
6 1 5.403810978 2.701905489 8.1057164669
7 1 5.403810978 8.1057164669 2.701905489
8 1 5.403810978 8.1057164669 8.1057164669
9 1 2.701905489 2.701905489 0.0
10 1 2.701905489 2.701905489 5.403810978
11 1 2.701905489 8.1057164669 0.0
12 1 2.701905489 8.1057164669 5.403810978
13 1 8.1057164669 2.701905489 0.0
14 1 8.1057164669 2.701905489 5.403810978
15 1 8.1057164669 8.1057164669 0.0
16 1 8.1057164669 8.1057164669 5.403810978
17 1 2.701905489 0.0 2.701905489
18 1 2.701905489 0.0 8.1057164669
19 1 2.701905489 5.403810978 2.701905489
20 1 2.701905489 5.403810978 8.1057164669
21 1 8.1057164669 0.0 2.701905489
22 1 8.1057164669 0.0 8.1057164669
23 1 8.1057164669 5.403810978 2.701905489
24 1 8.1057164669 5.403810978 8.1057164669
25 1 0.0 0.0 0.0
26 1 0.0 0.0 5.403810978
27 1 0.0 5.403810978 0.0
28 1 0.0 5.403810978 5.403810978
29 1 5.403810978 0.0 0.0
30 1 5.403810978 0.0 5.403810978
31 1 5.403810978 5.403810978 0.0
32 1 5.403810978 5.403810978 5.403810978
33 2 2.0690543237 0.6328511329 4.7709599748
34 2 2.0690543237 0.6328511329 10.1747712661
35 2 2.0690543237 6.0366623054 4.7709599748
36 2 2.0690543237 6.0366623054 10.1747712661
37 2 7.4728651395 0.6328511329 4.7709599748
38 2 7.4728651395 0.6328511329 10.1747712661
39 2 7.4728651395 6.0366623054 4.7709599748
40 2 7.4728651395 6.0366623054 10.1747712661
41 2 0.6328511329 4.7709599748 2.0690543237
42 2 0.6328511329 4.7709599748 7.4728651395
43 2 0.6328511329 10.1747712661 2.0690543237
44 2 0.6328511329 10.1747712661 7.4728651395
45 2 6.0366623054 4.7709599748 2.0690543237
46 2 6.0366623054 4.7709599748 7.4728651395
47 2 6.0366623054 10.1747712661 2.0690543237
48 2 6.0366623054 10.1747712661 7.4728651395
49 2 4.7709599748 2.0690543237 0.6328511329
50 2 4.7709599748 2.0690543237 6.0366623054
51 2 4.7709599748 7.4728651395 0.6328511329
52 2 4.7709599748 7.4728651395 6.0366623054
53 2 10.1747712661 2.0690543237 0.6328511329
54 2 10.1747712661 2.0690543237 6.0366623054
55 2 10.1747712661 7.4728651395 0.6328511329
56 2 10.1747712661 7.4728651395 6.0366623054
57 2 3.3347564921 3.3347564921 3.3347564921
58 2 3.3347564921 3.3347564921 8.7385671567
59 2 3.3347564921 8.7385671567 3.3347564921
60 2 3.3347564921 8.7385671567 8.7385671567
61 2 8.7385671567 3.3347564921 3.3347564921
62 2 8.7385671567 3.3347564921 8.7385671567
63 2 8.7385671567 8.7385671567 3.3347564921
64 2 8.7385671567 8.7385671567 8.7385671567
65 2 2.0690543237 2.0690543237 2.0690543237
66 2 2.0690543237 2.0690543237 7.4728651395
67 2 2.0690543237 7.4728651395 2.0690543237
68 2 2.0690543237 7.4728651395 7.4728651395
69 2 7.4728651395 2.0690543237 2.0690543237
70 2 7.4728651395 2.0690543237 7.4728651395
71 2 7.4728651395 7.4728651395 2.0690543237
72 2 7.4728651395 7.4728651395 7.4728651395
73 2 0.6328511329 3.3347564921 4.7709599748
74 2 0.6328511329 3.3347564921 10.1747712661
75 2 0.6328511329 8.7385671567 4.7709599748
76 2 0.6328511329 8.7385671567 10.1747712661
77 2 6.0366623054 3.3347564921 4.7709599748
78 2 6.0366623054 3.3347564921 10.1747712661
79 2 6.0366623054 8.7385671567 4.7709599748
80 2 6.0366623054 8.7385671567 10.1747712661
81 2 4.7709599748 0.6328511329 3.3347564921
82 2 4.7709599748 0.6328511329 8.7385671567
83 2 4.7709599748 6.0366623054 3.3347564921
84 2 4.7709599748 6.0366623054 8.7385671567
85 2 10.1747712661 0.6328511329 3.3347564921
86 2 10.1747712661 0.6328511329 8.7385671567
87 2 10.1747712661 6.0366623054 3.3347564921
88 2 10.1747712661 6.0366623054 8.7385671567
89 2 3.3347564921 4.7709599748 0.6328511329
90 2 3.3347564921 4.7709599748 6.0366623054
91 2 3.3347564921 10.1747712661 0.6328511329
92 2 3.3347564921 10.1747712661 6.0366623054
93 2 8.7385671567 4.7709599748 0.6328511329
94 2 8.7385671567 4.7709599748 6.0366623054
95 2 8.7385671567 10.1747712661 0.6328511329
96 2 8.7385671567 10.1747712661 6.0366623054
