# Structure data of Cu (2x2x2 conventional)

32 atoms
1 atom types

0.000000    7.242524   xlo xhi
0.000000    7.242524   ylo yhi
0.000000    7.242524   zlo zhi
0.000000    0.000000    0.000000   xy xz yz

Masses

1 63.546 000999 Cu 2.22 29

Atoms

  1  1  0.000000  0.000000  0.000000 
  2  1 -0.000000 -0.000000  3.621262 
  3  1 -0.000000  3.621262  0.000000 
  4  1 -0.000000  3.621262  3.621262 
  5  1  3.621262  0.000000  0.000000 
  6  1  3.621262 -0.000000  3.621262 
  7  1  3.621262  3.621262  0.000000 
  8  1  3.621262  3.621262  3.621262 
  9  1 -0.000000  1.810631  1.810631 
 10  1 -0.000000  1.810631  5.431893 
 11  1 -0.000000  5.431893  1.810631 
 12  1 -0.000000  5.431893  5.431893 
 13  1  3.621262  1.810631  1.810631 
 14  1  3.621262  1.810631  5.431893 
 15  1  3.621262  5.431893  1.810631 
 16  1  3.621262  5.431893  5.431893 
 17  1  1.810631 -0.000000  1.810631 
 18  1  1.810631 -0.000000  5.431893 
 19  1  1.810631  3.621262  1.810631 
 20  1  1.810631  3.621262  5.431893 
 21  1  5.431893 -0.000000  1.810631 
 22  1  5.431893 -0.000000  5.431893 
 23  1  5.431893  3.621262  1.810631 
 24  1  5.431893  3.621262  5.431893 
 25  1  1.810631  1.810631  0.000000 
 26  1  1.810631  1.810631  3.621262 
 27  1  1.810631  5.431893  0.000000 
 28  1  1.810631  5.431893  3.621262 
 29  1  5.431893  1.810631  0.000000 
 30  1  5.431893  1.810631  3.621262 
 31  1  5.431893  5.431893  0.000000 
 32  1  5.431893  5.431893  3.621262 
