# Structure data of Al (2x2x2 conventional) 

32 atoms
1 atom types

0.000000    8.079999   xlo xhi
0.000000    8.079999   ylo yhi
0.000000    8.079999   zlo zhi
0.000000    0.000000    0.000000   xy xz yz

Masses
 
 1 26.9815 1 Al 2.22 13.0

Atoms

   1  1     0.000000000         0.000000000         0.000000000
   2  1     0.000000000         0.000000000         4.039999962
   3  1     0.000000000         4.039999962         0.000000000
   4  1     0.000000000         4.039999962         4.039999962
   5  1     4.039999962         0.000000000         0.000000000
   6  1     4.039999962         0.000000000         4.039999962
   7  1     4.039999962         4.039999962         0.000000000
   8  1     4.039999962         4.039999962         4.039999962
   9  1     0.000000000         2.019999981         2.019999981
  10  1     0.000000000         2.019999981         6.059999943
  11  1     0.000000000         6.059999943         2.019999981
  12  1     0.000000000         6.059999943         6.059999943
  13  1     4.039999962         2.019999981         2.019999981
  14  1     4.039999962         2.019999981         6.059999943
  15  1     4.039999962         6.059999943         2.019999981
  16  1     4.039999962         6.059999943         6.059999943
  17  1     2.019999981         0.000000000         2.019999981
  18  1     2.019999981         0.000000000         6.059999943
  19  1     2.019999981         4.039999962         2.019999981
  20  1     2.019999981         4.039999962         6.059999943
  21  1     6.059999943         0.000000000         2.019999981
  22  1     6.059999943         0.000000000         6.059999943
  23  1     6.059999943         4.039999962         2.019999981
  24  1     6.059999943         4.039999962         6.059999943
  25  1     2.019999981         2.019999981         0.000000000
  26  1     2.019999981         2.019999981         4.039999962
  27  1     2.019999981         6.059999943         0.000000000
  28  1     2.019999981         6.059999943         4.039999962
  29  1     6.059999943         2.019999981         0.000000000
  30  1     6.059999943         2.019999981         4.039999962
  31  1     6.059999943         6.059999943         0.000000000
  32  1     6.059999943         6.059999943         4.039999962

