# Structure data of Ca (2x2x2 conventional) 

32 atoms
1 atom types

0.0 11.153632164 xlo xhi
0.0 11.153632164 ylo yhi
0.0 11.153632164 zlo zhi
0.000000    0.000000    0.000000   xy xz yz

Masses

1 40.078  # Ca

Atoms  # atomic

1 1 0.0 0.0 0.0
2 1 0.0 0.0 5.576816082
3 1 0.0 5.576816082 0.0
4 1 0.0 5.576816082 5.576816082
5 1 5.576816082 0.0 0.0
6 1 5.576816082 0.0 5.576816082
7 1 5.576816082 5.576816082 0.0
8 1 5.576816082 5.576816082 5.576816082
9 1 0.0 2.788408041 2.788408041
10 1 0.0 2.788408041 8.365224123
11 1 0.0 8.365224123 2.788408041
12 1 0.0 8.365224123 8.365224123
13 1 5.576816082 2.788408041 2.788408041
14 1 5.576816082 2.788408041 8.365224123
15 1 5.576816082 8.365224123 2.788408041
16 1 5.576816082 8.365224123 8.365224123
17 1 2.788408041 0.0 2.788408041
18 1 2.788408041 0.0 8.365224123
19 1 2.788408041 5.576816082 2.788408041
20 1 2.788408041 5.576816082 8.365224123
21 1 8.365224123 0.0 2.788408041
22 1 8.365224123 0.0 8.365224123
23 1 8.365224123 5.576816082 2.788408041
24 1 8.365224123 5.576816082 8.365224123
25 1 2.788408041 2.788408041 0.0
26 1 2.788408041 2.788408041 5.576816082
27 1 2.788408041 8.365224123 0.0
28 1 2.788408041 8.365224123 5.576816082
29 1 8.365224123 2.788408041 0.0
30 1 8.365224123 2.788408041 5.576816082
31 1 8.365224123 8.365224123 0.0
32 1 8.365224123 8.365224123 5.576816082
