# Structure data of Mn3Si (2x2x2 conventional) 

128 atoms
2 atom types

0.0 11.3133401871 xlo xhi
0.0 11.3133401871 ylo yhi
0.0 11.3133401871 zlo zhi
0.000000    0.000000    0.000000   xy xz yz

Masses

1 54.938049  # Mn
2 28.0855  # Si

Atoms  # atomic

1 1 1.4141675234 4.2425025702 4.2425025702
2 1 1.4141675234 4.2425025702 9.8991726637
3 1 1.4141675234 9.8991726637 4.2425025702
4 1 1.4141675234 9.8991726637 9.8991726637
5 1 7.0708376169 4.2425025702 4.2425025702
6 1 7.0708376169 4.2425025702 9.8991726637
7 1 7.0708376169 9.8991726637 4.2425025702
8 1 7.0708376169 9.8991726637 9.8991726637
9 1 1.4141675234 1.4141675234 4.2425025702
10 1 1.4141675234 1.4141675234 9.8991726637
11 1 1.4141675234 7.0708376169 4.2425025702
12 1 1.4141675234 7.0708376169 9.8991726637
13 1 7.0708376169 1.4141675234 4.2425025702
14 1 7.0708376169 1.4141675234 9.8991726637
15 1 7.0708376169 7.0708376169 4.2425025702
16 1 7.0708376169 7.0708376169 9.8991726637
17 1 2.8283350468 0.0 0.0
18 1 2.8283350468 0.0 5.6566700935
19 1 2.8283350468 5.6566700935 0.0
20 1 2.8283350468 5.6566700935 5.6566700935
21 1 8.4850051403 0.0 0.0
22 1 8.4850051403 0.0 5.6566700935
23 1 8.4850051403 5.6566700935 0.0
24 1 8.4850051403 5.6566700935 5.6566700935
25 1 1.4141675234 1.4141675234 1.4141675234
26 1 1.4141675234 1.4141675234 7.0708376169
27 1 1.4141675234 7.0708376169 1.4141675234
28 1 1.4141675234 7.0708376169 7.0708376169
29 1 7.0708376169 1.4141675234 1.4141675234
30 1 7.0708376169 1.4141675234 7.0708376169
31 1 7.0708376169 7.0708376169 1.4141675234
32 1 7.0708376169 7.0708376169 7.0708376169
33 1 1.4141675234 4.2425025702 1.4141675234
34 1 1.4141675234 4.2425025702 7.0708376169
35 1 1.4141675234 9.8991726637 1.4141675234
36 1 1.4141675234 9.8991726637 7.0708376169
37 1 7.0708376169 4.2425025702 1.4141675234
38 1 7.0708376169 4.2425025702 7.0708376169
39 1 7.0708376169 9.8991726637 1.4141675234
40 1 7.0708376169 9.8991726637 7.0708376169
41 1 2.8283350468 2.8283350468 2.8283350468
42 1 2.8283350468 2.8283350468 8.4850051403
43 1 2.8283350468 8.4850051403 2.8283350468
44 1 2.8283350468 8.4850051403 8.4850051403
45 1 8.4850051403 2.8283350468 2.8283350468
46 1 8.4850051403 2.8283350468 8.4850051403
47 1 8.4850051403 8.4850051403 2.8283350468
48 1 8.4850051403 8.4850051403 8.4850051403
49 1 4.2425025702 4.2425025702 1.4141675234
50 1 4.2425025702 4.2425025702 7.0708376169
51 1 4.2425025702 9.8991726637 1.4141675234
52 1 4.2425025702 9.8991726637 7.0708376169
53 1 9.8991726637 4.2425025702 1.4141675234
54 1 9.8991726637 4.2425025702 7.0708376169
55 1 9.8991726637 9.8991726637 1.4141675234
56 1 9.8991726637 9.8991726637 7.0708376169
57 1 4.2425025702 1.4141675234 1.4141675234
58 1 4.2425025702 1.4141675234 7.0708376169
59 1 4.2425025702 7.0708376169 1.4141675234
60 1 4.2425025702 7.0708376169 7.0708376169
61 1 9.8991726637 1.4141675234 1.4141675234
62 1 9.8991726637 1.4141675234 7.0708376169
63 1 9.8991726637 7.0708376169 1.4141675234
64 1 9.8991726637 7.0708376169 7.0708376169
65 1 0.0 0.0 2.8283350468
66 1 0.0 0.0 8.4850051403
67 1 0.0 5.6566700935 2.8283350468
68 1 0.0 5.6566700935 8.4850051403
69 1 5.6566700935 0.0 2.8283350468
70 1 5.6566700935 0.0 8.4850051403
71 1 5.6566700935 5.6566700935 2.8283350468
72 1 5.6566700935 5.6566700935 8.4850051403
73 1 4.2425025702 1.4141675234 4.2425025702
74 1 4.2425025702 1.4141675234 9.8991726637
75 1 4.2425025702 7.0708376169 4.2425025702
76 1 4.2425025702 7.0708376169 9.8991726637
77 1 9.8991726637 1.4141675234 4.2425025702
78 1 9.8991726637 1.4141675234 9.8991726637
79 1 9.8991726637 7.0708376169 4.2425025702
80 1 9.8991726637 7.0708376169 9.8991726637
81 1 4.2425025702 4.2425025702 4.2425025702
82 1 4.2425025702 4.2425025702 9.8991726637
83 1 4.2425025702 9.8991726637 4.2425025702
84 1 4.2425025702 9.8991726637 9.8991726637
85 1 9.8991726637 4.2425025702 4.2425025702
86 1 9.8991726637 4.2425025702 9.8991726637
87 1 9.8991726637 9.8991726637 4.2425025702
88 1 9.8991726637 9.8991726637 9.8991726637
89 1 0.0 2.8283350468 0.0
90 1 0.0 2.8283350468 5.6566700935
91 1 0.0 8.4850051403 0.0
92 1 0.0 8.4850051403 5.6566700935
93 1 5.6566700935 2.8283350468 0.0
94 1 5.6566700935 2.8283350468 5.6566700935
95 1 5.6566700935 8.4850051403 0.0
96 1 5.6566700935 8.4850051403 5.6566700935
97 2 0.0 0.0 0.0
98 2 0.0 0.0 5.6566700935
99 2 0.0 5.6566700935 0.0
100 2 0.0 5.6566700935 5.6566700935
101 2 5.6566700935 0.0 0.0
102 2 5.6566700935 0.0 5.6566700935
103 2 5.6566700935 5.6566700935 0.0
104 2 5.6566700935 5.6566700935 5.6566700935
105 2 0.0 2.8283350468 2.8283350468
106 2 0.0 2.8283350468 8.4850051403
107 2 0.0 8.4850051403 2.8283350468
108 2 0.0 8.4850051403 8.4850051403
109 2 5.6566700935 2.8283350468 2.8283350468
110 2 5.6566700935 2.8283350468 8.4850051403
111 2 5.6566700935 8.4850051403 2.8283350468
112 2 5.6566700935 8.4850051403 8.4850051403
113 2 2.8283350468 0.0 2.8283350468
114 2 2.8283350468 0.0 8.4850051403
115 2 2.8283350468 5.6566700935 2.8283350468
116 2 2.8283350468 5.6566700935 8.4850051403
117 2 8.4850051403 0.0 2.8283350468
118 2 8.4850051403 0.0 8.4850051403
119 2 8.4850051403 5.6566700935 2.8283350468
120 2 8.4850051403 5.6566700935 8.4850051403
121 2 2.8283350468 2.8283350468 0.0
122 2 2.8283350468 2.8283350468 5.6566700935
123 2 2.8283350468 8.4850051403 0.0
124 2 2.8283350468 8.4850051403 5.6566700935
125 2 8.4850051403 2.8283350468 0.0
126 2 8.4850051403 2.8283350468 5.6566700935
127 2 8.4850051403 8.4850051403 0.0
128 2 8.4850051403 8.4850051403 5.6566700935
