# Structure data of CaMgSi (2x2x2 conventional) 

96 atoms
3 atom types

0.0 8.8604440689 xlo xhi
0.0 14.9599533081 ylo yhi
0.0 16.4853515625 zlo zhi
0.000000    0.000000    0.000000   xy xz yz

Masses

1 40.078  # Ca
2 24.305  # Mg
3 28.0855  # Si

Atoms  # atomic

1 1 1.1075555086 0.1330607811 1.5058384312
2 1 1.1075555086 0.1330607811 9.7485137179
3 1 1.1075555086 7.613037121 1.5058384312
4 1 1.1075555086 7.613037121 9.7485137179
5 1 5.5377775431 0.1330607811 1.5058384312
6 1 5.5377775431 0.1330607811 9.7485137179
7 1 5.5377775431 7.613037121 1.5058384312
8 1 5.5377775431 7.613037121 9.7485137179
9 1 3.3226665258 7.3469157533 6.73683735
10 1 3.3226665258 7.3469157533 14.9795136259
11 1 3.3226665258 14.8268928412 6.73683735
12 1 3.3226665258 14.8268928412 14.9795136259
13 1 7.7528885603 7.3469157533 6.73683735
14 1 7.7528885603 7.3469157533 14.9795136259
15 1 7.7528885603 14.8268928412 6.73683735
16 1 7.7528885603 14.8268928412 14.9795136259
17 1 1.1075555086 3.8730492278 2.6154994594
18 1 1.1075555086 3.8730492278 10.8581757352
19 1 1.1075555086 11.353025448 2.6154994594
20 1 1.1075555086 11.353025448 10.8581757352
21 1 5.5377775431 3.8730492278 2.6154994594
22 1 5.5377775431 3.8730492278 10.8581757352
23 1 5.5377775431 11.353025448 2.6154994594
24 1 5.5377775431 11.353025448 10.8581757352
25 1 3.3226665258 3.6069276506 5.6271763218
26 1 3.3226665258 3.6069276506 13.8698516085
27 1 3.3226665258 11.0869045141 5.6271763218
28 1 3.3226665258 11.0869045141 13.8698516085
29 1 7.7528885603 3.6069276506 5.6271763218
30 1 7.7528885603 3.6069276506 13.8698516085
31 1 7.7528885603 11.0869045141 5.6271763218
32 1 7.7528885603 11.0869045141 13.8698516085
33 2 3.3226665258 6.3875833155 3.5859869955
34 2 3.3226665258 6.3875833155 11.8286627767
35 2 3.3226665258 13.8675599695 3.5859869955
36 2 3.3226665258 13.8675599695 11.8286627767
37 2 7.7528885603 6.3875833155 3.5859869955
38 2 7.7528885603 6.3875833155 11.8286627767
39 2 7.7528885603 13.8675599695 3.5859869955
40 2 7.7528885603 13.8675599695 11.8286627767
41 2 1.1075555086 4.8323816656 7.7073248861
42 2 1.1075555086 4.8323816656 15.9500006673
43 2 1.1075555086 12.3123583197 7.7073248861
44 2 1.1075555086 12.3123583197 15.9500006673
45 2 5.5377775431 4.8323816656 7.7073248861
46 2 5.5377775431 4.8323816656 15.9500006673
47 2 5.5377775431 12.3123583197 7.7073248861
48 2 5.5377775431 12.3123583197 15.9500006673
49 2 3.3226665258 2.647594764 0.5353508952
50 2 3.3226665258 2.647594764 8.7780266764
51 2 3.3226665258 10.1275716425 0.5353508952
52 2 3.3226665258 10.1275716425 8.7780266764
53 2 7.7528885603 2.647594764 0.5353508952
54 2 7.7528885603 2.647594764 8.7780266764
55 2 7.7528885603 10.1275716425 0.5353508952
56 2 7.7528885603 10.1275716425 8.7780266764
57 2 1.1075555086 1.092393563 4.6566887858
58 2 1.1075555086 1.092393563 12.899364567
59 2 1.1075555086 8.5723699926 4.6566887858
60 2 1.1075555086 8.5723699926 12.899364567
61 2 5.5377775431 1.092393563 4.6566887858
62 2 5.5377775431 1.092393563 12.899364567
63 2 5.5377775431 8.5723699926 4.6566887858
64 2 5.5377775431 8.5723699926 12.899364567
65 3 1.1075555086 2.0299023012 7.3134256598
66 3 1.1075555086 2.0299023012 15.556101441
67 3 1.1075555086 9.5098789553 7.3134256598
68 3 1.1075555086 9.5098789553 15.556101441
69 3 5.5377775431 2.0299023012 7.3134256598
70 3 5.5377775431 2.0299023012 15.556101441
71 3 5.5377775431 9.5098789553 7.3134256598
72 3 5.5377775431 9.5098789553 15.556101441
73 3 3.3226665258 1.7100861455 3.1920877691
74 3 3.3226665258 1.7100861455 11.4347635504
75 3 3.3226665258 9.1900626799 3.1920877691
76 3 3.3226665258 9.1900626799 11.4347635504
77 3 7.7528885603 1.7100861455 3.1920877691
78 3 7.7528885603 1.7100861455 11.4347635504
79 3 7.7528885603 9.1900626799 3.1920877691
80 3 7.7528885603 9.1900626799 11.4347635504
81 3 1.1075555086 5.7698906282 5.0505880121
82 3 1.1075555086 5.7698906282 13.2932637934
83 3 1.1075555086 13.2498672823 5.0505880121
84 3 1.1075555086 13.2498672823 13.2932637934
85 3 5.5377775431 5.7698906282 5.0505880121
86 3 5.5377775431 5.7698906282 13.2932637934
87 3 5.5377775431 13.2498672823 5.0505880121
88 3 5.5377775431 13.2498672823 13.2932637934
89 3 3.3226665258 5.4500743528 0.9292501215
90 3 3.3226665258 5.4500743528 9.1719259027
91 3 3.3226665258 12.9300510069 0.9292501215
92 3 3.3226665258 12.9300510069 9.1719259027
93 3 7.7528885603 5.4500743528 0.9292501215
94 3 7.7528885603 5.4500743528 9.1719259027
95 3 7.7528885603 12.9300510069 0.9292501215
96 3 7.7528885603 12.9300510069 9.1719259027
