# Structure data of Mn4Si7 (2x2x2 conventional) 

352 atoms
2 atom types

0.0 11.0062580109 xlo xhi
0.0 11.0062580109 ylo yhi
0.0 34.7171134949 zlo zhi
0.000000    0.000000    0.000000   xy xz yz

Masses

1 54.938049  # Mn
2 28.0855  # Si

Atoms  # atomic

1 1 0.0 0.0 4.3396391869
2 1 0.0 0.0 21.6981959343
3 1 0.0 5.5031290054 4.3396391869
4 1 0.0 5.5031290054 21.6981959343
5 1 5.5031290054 0.0 4.3396391869
6 1 5.5031290054 0.0 21.6981959343
7 1 5.5031290054 5.5031290054 4.3396391869
8 1 5.5031290054 5.5031290054 21.6981959343
9 1 0.0 2.7515645027 14.03104279
10 1 0.0 2.7515645027 31.3895984959
11 1 0.0 8.2546935082 14.03104279
12 1 0.0 8.2546935082 31.3895984959
13 1 5.5031290054 2.7515645027 14.03104279
14 1 5.5031290054 2.7515645027 31.3895984959
15 1 5.5031290054 8.2546935082 14.03104279
16 1 5.5031290054 8.2546935082 31.3895984959
17 1 2.7515645027 0.0 12.0067923312
18 1 2.7515645027 0.0 29.3653501201
19 1 2.7515645027 5.5031290054 12.0067923312
20 1 2.7515645027 5.5031290054 29.3653501201
21 1 8.2546935082 0.0 12.0067923312
22 1 8.2546935082 0.0 29.3653501201
23 1 8.2546935082 5.5031290054 12.0067923312
24 1 8.2546935082 5.5031290054 29.3653501201
25 1 2.7515645027 2.7515645027 6.420965101
26 1 2.7515645027 2.7515645027 23.7795218485
27 1 2.7515645027 8.2546935082 6.420965101
28 1 2.7515645027 8.2546935082 23.7795218485
29 1 8.2546935082 2.7515645027 6.420965101
30 1 8.2546935082 2.7515645027 23.7795218485
31 1 8.2546935082 8.2546935082 6.420965101
32 1 8.2546935082 8.2546935082 23.7795218485
33 1 0.0 0.0 0.0
34 1 0.0 0.0 17.3585567474
35 1 0.0 5.5031290054 0.0
36 1 0.0 5.5031290054 17.3585567474
37 1 5.5031290054 0.0 0.0
38 1 5.5031290054 0.0 17.3585567474
39 1 5.5031290054 5.5031290054 0.0
40 1 5.5031290054 5.5031290054 17.3585567474
41 1 2.7515645027 2.7515645027 2.2583135157
42 1 2.7515645027 2.7515645027 19.6168700202
43 1 2.7515645027 8.2546935082 2.2583135157
44 1 2.7515645027 8.2546935082 19.6168700202
45 1 8.2546935082 2.7515645027 2.2583135157
46 1 8.2546935082 2.7515645027 19.6168700202
47 1 8.2546935082 8.2546935082 2.2583135157
48 1 8.2546935082 8.2546935082 19.6168700202
49 1 2.7515645027 0.0 7.5507637436
50 1 2.7515645027 0.0 24.9093210118
51 1 2.7515645027 5.5031290054 7.5507637436
52 1 2.7515645027 5.5031290054 24.9093210118
53 1 8.2546935082 0.0 7.5507637436
54 1 8.2546935082 0.0 24.9093210118
55 1 8.2546935082 5.5031290054 7.5507637436
56 1 8.2546935082 5.5031290054 24.9093210118
57 1 0.0 0.0 13.0189175606
58 1 0.0 0.0 30.377474308
59 1 0.0 5.5031290054 13.0189175606
60 1 0.0 5.5031290054 30.377474308
61 1 5.5031290054 0.0 13.0189175606
62 1 5.5031290054 0.0 30.377474308
63 1 5.5031290054 5.5031290054 13.0189175606
64 1 5.5031290054 5.5031290054 30.377474308
65 1 2.7515645027 0.0 16.2300426381
66 1 2.7515645027 0.0 33.5885993855
67 1 2.7515645027 5.5031290054 16.2300426381
68 1 2.7515645027 5.5031290054 33.5885993855
69 1 8.2546935082 0.0 16.2300426381
70 1 8.2546935082 0.0 33.5885993855
71 1 8.2546935082 5.5031290054 16.2300426381
72 1 8.2546935082 5.5031290054 33.5885993855
73 1 2.7515645027 2.7515645027 10.9375916464
74 1 2.7515645027 2.7515645027 28.2961483939
75 1 2.7515645027 8.2546935082 10.9375916464
76 1 2.7515645027 8.2546935082 28.2961483939
77 1 8.2546935082 2.7515645027 10.9375916464
78 1 8.2546935082 2.7515645027 28.2961483939
79 1 8.2546935082 8.2546935082 10.9375916464
80 1 8.2546935082 8.2546935082 28.2961483939
81 1 0.0 2.7515645027 1.1285144913
82 1 0.0 2.7515645027 18.4870708568
83 1 0.0 8.2546935082 1.1285144913
84 1 0.0 8.2546935082 18.4870708568
85 1 5.5031290054 2.7515645027 1.1285144913
86 1 5.5031290054 2.7515645027 18.4870708568
87 1 5.5031290054 8.2546935082 1.1285144913
88 1 5.5031290054 8.2546935082 18.4870708568
89 1 0.0 2.7515645027 5.3517644163
90 1 0.0 2.7515645027 22.7103201222
91 1 0.0 8.2546935082 5.3517644163
92 1 0.0 8.2546935082 22.7103201222
93 1 5.5031290054 2.7515645027 5.3517644163
94 1 5.5031290054 2.7515645027 22.7103201222
95 1 5.5031290054 8.2546935082 5.3517644163
96 1 5.5031290054 8.2546935082 22.7103201222
97 1 0.0 0.0 8.6792783737
98 1 0.0 0.0 26.0378351212
99 1 0.0 5.5031290054 8.6792783737
100 1 0.0 5.5031290054 26.0378351212
101 1 5.5031290054 0.0 8.6792783737
102 1 5.5031290054 0.0 26.0378351212
103 1 5.5031290054 5.5031290054 8.6792783737
104 1 5.5031290054 5.5031290054 26.0378351212
105 1 2.7515645027 0.0 3.3275137144
106 1 2.7515645027 0.0 20.6860696634
107 1 2.7515645027 5.5031290054 3.3275137144
108 1 2.7515645027 5.5031290054 20.6860696634
109 1 8.2546935082 0.0 3.3275137144
110 1 8.2546935082 0.0 20.6860696634
111 1 8.2546935082 5.5031290054 3.3275137144
112 1 8.2546935082 5.5031290054 20.6860696634
113 1 0.0 2.7515645027 9.8077924831
114 1 0.0 2.7515645027 27.1663492306
115 1 0.0 8.2546935082 9.8077924831
116 1 0.0 8.2546935082 27.1663492306
117 1 5.5031290054 2.7515645027 9.8077924831
118 1 5.5031290054 2.7515645027 27.1663492306
119 1 5.5031290054 8.2546935082 9.8077924831
120 1 5.5031290054 8.2546935082 27.1663492306
121 1 2.7515645027 2.7515645027 15.1002434747
122 1 2.7515645027 2.7515645027 32.4588002222
123 1 2.7515645027 8.2546935082 15.1002434747
124 1 2.7515645027 8.2546935082 32.4588002222
125 1 8.2546935082 2.7515645027 15.1002434747
126 1 8.2546935082 2.7515645027 32.4588002222
127 1 8.2546935082 8.2546935082 15.1002434747
128 1 8.2546935082 8.2546935082 32.4588002222
129 2 4.4074890502 4.6467597394 1.9595554303
130 2 4.4074890502 4.6467597394 19.3181125596
131 2 4.4074890502 10.1498887448 1.9595554303
132 2 4.4074890502 10.1498887448 19.3181125596
133 2 9.9106177255 4.6467597394 1.9595554303
134 2 9.9106177255 4.6467597394 19.3181125596
135 2 9.9106177255 10.1498887448 1.9595554303
136 2 9.9106177255 10.1498887448 19.3181125596
137 2 4.2400454651 1.90638848 8.0009060802
138 2 4.2400454651 1.90638848 25.3594623069
139 2 4.2400454651 7.4095173203 8.0009060802
140 2 4.2400454651 7.4095173203 25.3594623069
141 2 9.7431741403 1.90638848 8.0009060802
142 2 9.7431741403 1.90638848 25.3594623069
143 2 9.7431741403 7.4095173203 8.0009060802
144 2 9.7431741403 7.4095173203 25.3594623069
145 2 4.4074890502 0.8563694312 10.6388341859
146 2 4.4074890502 0.8563694312 27.9973909333
147 2 4.4074890502 6.3594982715 10.6388341859
148 2 4.4074890502 6.3594982715 27.9973909333
149 2 9.9106177255 0.8563694312 10.6388341859
150 2 9.9106177255 0.8563694312 27.9973909333
151 2 9.9106177255 6.3594982715 10.6388341859
152 2 9.9106177255 6.3594982715 27.9973909333
153 2 1.90638848 1.2630837055 9.357651188
154 2 1.90638848 1.2630837055 26.7162079355
155 2 1.90638848 6.766212876 9.357651188
156 2 1.90638848 6.766212876 26.7162079355
157 2 7.4095173203 1.2630837055 9.357651188
158 2 7.4095173203 1.2630837055 26.7162079355
159 2 7.4095173203 6.766212876 9.357651188
160 2 7.4095173203 6.766212876 26.7162079355
161 2 3.7350397486 0.8740455036 5.5103872203
162 2 3.7350397486 0.8740455036 22.8689444885
163 2 3.7350397486 6.3771748392 5.5103872203
164 2 3.7350397486 6.3771748392 22.8689444885
165 2 9.238168754 0.8740455036 5.5103872203
166 2 9.238168754 0.8740455036 22.8689444885
167 2 9.238168754 6.3771748392 5.5103872203
168 2 9.238168754 6.3771748392 22.8689444885
169 2 1.2630837055 1.90638848 16.6801839332
170 2 1.2630837055 1.90638848 34.0387406806
171 2 1.2630837055 7.4095173203 16.6801839332
172 2 1.2630837055 7.4095173203 34.0387406806
173 2 6.766212876 1.90638848 16.6801839332
174 2 6.766212876 1.90638848 34.0387406806
175 2 6.766212876 7.4095173203 16.6801839332
176 2 6.766212876 7.4095173203 34.0387406806
177 2 3.7350397486 4.6290835019 14.1896650732
178 2 3.7350397486 4.6290835019 31.5482228622
179 2 3.7350397486 10.1322121771 14.1896650732
180 2 3.7350397486 10.1322121771 31.5482228622
181 2 9.238168754 4.6290835019 14.1896650732
182 2 9.238168754 4.6290835019 31.5482228622
183 2 9.238168754 10.1322121771 14.1896650732
184 2 9.238168754 10.1322121771 31.5482228622
185 2 0.8740455036 3.7350397486 3.1688913965
186 2 0.8740455036 3.7350397486 20.5274473801
187 2 0.8740455036 9.238168754 3.1688913965
188 2 0.8740455036 9.238168754 20.5274473801
189 2 6.3771748392 3.7350397486 3.1688913965
190 2 6.3771748392 3.7350397486 20.5274473801
191 2 6.3771748392 9.238168754 3.1688913965
192 2 6.3771748392 9.238168754 20.5274473801
193 2 3.5967406906 1.2630837055 0.6783724324
194 2 3.5967406906 1.2630837055 18.0369295617
195 2 3.5967406906 6.766212876 0.6783724324
196 2 3.5967406906 6.766212876 18.0369295617
197 2 9.099869696 1.2630837055 0.6783724324
198 2 9.099869696 1.2630837055 18.0369295617
199 2 9.099869696 6.766212876 0.6783724324
200 2 9.099869696 6.766212876 18.0369295617
201 2 0.8563694312 4.4074890502 15.3990009353
202 2 0.8563694312 4.4074890502 32.7575576827
203 2 0.8563694312 9.9106177255 15.3990009353
204 2 0.8563694312 9.9106177255 32.7575576827
205 2 6.3594982715 4.4074890502 15.3990009353
206 2 6.3594982715 4.4074890502 32.7575576827
207 2 6.3594982715 9.9106177255 15.3990009353
208 2 6.3594982715 9.9106177255 32.7575576827
209 2 3.6658820144 1.8372471561 13.0189175606
210 2 3.6658820144 1.8372471561 30.377474308
211 2 3.6658820144 7.3403763157 13.0189175606
212 2 3.6658820144 7.3403763157 30.377474308
213 2 9.1690113501 1.8372471561 13.0189175606
214 2 9.1690113501 1.8372471561 30.377474308
215 2 9.1690113501 7.3403763157 13.0189175606
216 2 9.1690113501 7.3403763157 30.377474308
217 2 4.2400454651 3.5967406906 16.6801839332
218 2 4.2400454651 3.5967406906 34.0387406806
219 2 4.2400454651 9.099869696 16.6801839332
220 2 4.2400454651 9.099869696 34.0387406806
221 2 9.7431741403 3.5967406906 16.6801839332
222 2 9.7431741403 3.5967406906 34.0387406806
223 2 9.7431741403 9.099869696 16.6801839332
224 2 9.7431741403 9.099869696 34.0387406806
225 2 0.8740455036 1.7680892569 11.8481700479
226 2 0.8740455036 1.7680892569 29.2067257539
227 2 0.8740455036 7.2712182623 11.8481700479
228 2 0.8740455036 7.2712182623 29.2067257539
229 2 6.3771748392 1.7680892569 11.8481700479
230 2 6.3771748392 1.7680892569 29.2067257539
231 2 6.3771748392 7.2712182623 11.8481700479
232 2 6.3771748392 7.2712182623 29.2067257539
233 2 1.8372471561 1.8372471561 4.3396391869
234 2 1.8372471561 1.8372471561 21.6981959343
235 2 1.8372471561 7.3403763157 4.3396391869
236 2 1.8372471561 7.3403763157 21.6981959343
237 2 7.3403763157 1.8372471561 4.3396391869
238 2 7.3403763157 1.8372471561 21.6981959343
239 2 7.3403763157 7.3403763157 4.3396391869
240 2 7.3403763157 7.3403763157 21.6981959343
241 2 1.7680892569 4.6290835019 5.5103872203
242 2 1.7680892569 4.6290835019 22.8689444885
243 2 1.7680892569 10.1322121771 5.5103872203
244 2 1.7680892569 10.1322121771 22.8689444885
245 2 7.2712182623 4.6290835019 5.5103872203
246 2 7.2712182623 4.6290835019 22.8689444885
247 2 7.2712182623 10.1322121771 5.5103872203
248 2 7.2712182623 10.1322121771 22.8689444885
249 2 3.5967406906 4.2400454651 9.357651188
250 2 3.5967406906 4.2400454651 26.7162079355
251 2 3.5967406906 9.7431741403 9.357651188
252 2 3.5967406906 9.7431741403 26.7162079355
253 2 9.099869696 4.2400454651 9.357651188
254 2 9.099869696 4.2400454651 26.7162079355
255 2 9.099869696 9.7431741403 9.357651188
256 2 9.099869696 9.7431741403 26.7162079355
257 2 4.6290835019 1.7680892569 3.1688913965
258 2 4.6290835019 1.7680892569 20.5274473801
259 2 4.6290835019 7.2712182623 3.1688913965
260 2 4.6290835019 7.2712182623 20.5274473801
261 2 10.1322121771 1.7680892569 3.1688913965
262 2 10.1322121771 1.7680892569 20.5274473801
263 2 10.1322121771 7.2712182623 3.1688913965
264 2 10.1322121771 7.2712182623 20.5274473801
265 2 4.6467597394 4.4074890502 6.7197230476
266 2 4.6467597394 4.4074890502 24.078279309
267 2 4.6467597394 9.9106177255 6.7197230476
268 2 4.6467597394 9.9106177255 24.078279309
269 2 10.1498887448 4.4074890502 6.7197230476
270 2 10.1498887448 4.4074890502 24.078279309
271 2 10.1498887448 9.9106177255 6.7197230476
272 2 10.1498887448 9.9106177255 24.078279309
273 2 4.6467597394 1.0956399552 15.3990009353
274 2 4.6467597394 1.0956399552 32.7575576827
275 2 4.6467597394 6.5987692908 15.3990009353
276 2 4.6467597394 6.5987692908 32.7575576827
277 2 10.1498887448 1.0956399552 15.3990009353
278 2 10.1498887448 1.0956399552 32.7575576827
279 2 10.1498887448 6.5987692908 15.3990009353
280 2 10.1498887448 6.5987692908 32.7575576827
281 2 1.0956399552 0.8563694312 1.9595554303
282 2 1.0956399552 0.8563694312 19.3181125596
283 2 1.0956399552 6.3594982715 1.9595554303
284 2 1.0956399552 6.3594982715 19.3181125596
285 2 6.5987692908 0.8563694312 1.9595554303
286 2 6.5987692908 0.8563694312 19.3181125596
287 2 6.5987692908 6.3594982715 1.9595554303
288 2 6.5987692908 6.3594982715 19.3181125596
289 2 4.6290835019 3.7350397486 11.8481700479
290 2 4.6290835019 3.7350397486 29.2067257539
291 2 4.6290835019 9.238168754 11.8481700479
292 2 4.6290835019 9.238168754 29.2067257539
293 2 10.1322121771 3.7350397486 11.8481700479
294 2 10.1322121771 3.7350397486 29.2067257539
295 2 10.1322121771 9.238168754 11.8481700479
296 2 10.1322121771 9.238168754 29.2067257539
297 2 1.2630837055 3.5967406906 8.0009060802
298 2 1.2630837055 3.5967406906 25.3594623069
299 2 1.2630837055 9.099869696 8.0009060802
300 2 1.2630837055 9.099869696 25.3594623069
301 2 6.766212876 3.5967406906 8.0009060802
302 2 6.766212876 3.5967406906 25.3594623069
303 2 6.766212876 9.099869696 8.0009060802
304 2 6.766212876 9.099869696 25.3594623069
305 2 1.0956399552 4.6467597394 10.6388341859
306 2 1.0956399552 4.6467597394 27.9973909333
307 2 1.0956399552 10.1498887448 10.6388341859
308 2 1.0956399552 10.1498887448 27.9973909333
309 2 6.5987692908 4.6467597394 10.6388341859
310 2 6.5987692908 4.6467597394 27.9973909333
311 2 6.5987692908 10.1498887448 10.6388341859
312 2 6.5987692908 10.1498887448 27.9973909333
313 2 0.8563694312 1.0956399552 6.7197230476
314 2 0.8563694312 1.0956399552 24.078279309
315 2 0.8563694312 6.5987692908 6.7197230476
316 2 0.8563694312 6.5987692908 24.078279309
317 2 6.3594982715 1.0956399552 6.7197230476
318 2 6.3594982715 1.0956399552 24.078279309
319 2 6.3594982715 6.5987692908 6.7197230476
320 2 6.3594982715 6.5987692908 24.078279309
321 2 1.7680892569 0.8740455036 14.1896650732
322 2 1.7680892569 0.8740455036 31.5482228622
323 2 1.7680892569 6.3771748392 14.1896650732
324 2 1.7680892569 6.3771748392 31.5482228622
325 2 7.2712182623 0.8740455036 14.1896650732
326 2 7.2712182623 0.8740455036 31.5482228622
327 2 7.2712182623 6.3771748392 14.1896650732
328 2 7.2712182623 6.3771748392 31.5482228622
329 2 3.6658820144 3.6658820144 4.3396391869
330 2 3.6658820144 3.6658820144 21.6981959343
331 2 3.6658820144 9.1690113501 4.3396391869
332 2 3.6658820144 9.1690113501 21.6981959343
333 2 9.1690113501 3.6658820144 4.3396391869
334 2 9.1690113501 3.6658820144 21.6981959343
335 2 9.1690113501 9.1690113501 4.3396391869
336 2 9.1690113501 9.1690113501 21.6981959343
337 2 1.8372471561 3.6658820144 13.0189175606
338 2 1.8372471561 3.6658820144 30.377474308
339 2 1.8372471561 9.1690113501 13.0189175606
340 2 1.8372471561 9.1690113501 30.377474308
341 2 7.3403763157 3.6658820144 13.0189175606
342 2 7.3403763157 3.6658820144 30.377474308
343 2 7.3403763157 9.1690113501 13.0189175606
344 2 7.3403763157 9.1690113501 30.377474308
345 2 1.90638848 4.2400454651 0.6783724324
346 2 1.90638848 4.2400454651 18.0369295617
347 2 1.90638848 9.7431741403 0.6783724324
348 2 1.90638848 9.7431741403 18.0369295617
349 2 7.4095173203 4.2400454651 0.6783724324
350 2 7.4095173203 4.2400454651 18.0369295617
351 2 7.4095173203 9.7431741403 0.6783724324
352 2 7.4095173203 9.7431741403 18.0369295617
