ITEM: TIMESTEP
0
ITEM: NUMBER OF ATOMS
16
ITEM: BOX BOUNDS xy xz yz pp pp pp
0.0000000000000000e+00 5.6801033020000000e+00 0.0000000000000000e+00
0.0000000000000000e+00 5.6801033020000000e+00 0.0000000000000000e+00
0.0000000000000000e+00 5.6801033020000000e+00 0.0000000000000000e+00
ITEM: ATOMS id xu yu zu fx fy fz
1    0.040000000000000    0.000000000000000    0.000000000000000   -0.196147352457047    0.000001376494765    0.001465473091230
2    0.000000000000000    0.000000000000000    2.840051651000000    0.003671130863950   -0.000000006519258    0.003671312006190
3    0.000000000000000    2.840051651000000    0.000000000000000    0.004518020898104   -0.000001259148121    0.007247261703014
4    0.000000000000000    2.840051651000000    2.840051651000000    0.009264060296118   -0.000000071362592    0.009262138046324
5    2.840051651000000    0.000000000000000    0.000000000000000    0.022385094314814   -0.000001302221790    0.022386008873582
6    2.840051651000000    0.000000000000000    2.880051651000000    0.001465470530093    0.000000716303475   -0.196148425340652
7    2.840051651000000    2.840051651000000    0.000000000000000   -0.003126657567918    0.000001186446752   -0.003126506693661
8    2.840051651000000    2.840051651000000    2.840051651000000    0.007245359942317   -0.000000775791705    0.004517860244960
9    1.420025825500000    1.420025825500000    1.420025825500000    0.041528753936291   -0.004626028705388    0.042876079678535
10    1.420025825500000    1.420025825500000    4.260077476500000   -0.005990609526634    0.045186061412096   -0.005991125479341
11    1.420025825500000    4.260077476500000    1.420025825500000    0.041528746485710    0.004626101348549    0.042876169085503
12    1.420025825500000    4.260077476500000    4.260077476500000   -0.005992490798235   -0.045186050236225   -0.005990990903229
13    4.260077476500000    1.420025825500000    1.420025825500000   -0.003051280975342   -0.051975600421429   -0.003050789935514
14    4.260077476500000    1.420025825500000    4.260077476500000    0.042875554412603   -0.004626137204468    0.041528154164553
15    4.260077476500000    4.260077476500000    1.420025825500000   -0.003051313804463    0.051975697278976   -0.003051368054003
16    4.260077476500000    4.260077476500000    4.260077476500000    0.042877580970526    0.004626053851098    0.041528776288033
