ITEM: TIMESTEP
0
ITEM: NUMBER OF ATOMS
16
ITEM: BOX BOUNDS xy xz yz pp pp pp
0.0000000000000000e+00 5.6801033020000000e+00 0.0000000000000000e+00
0.0000000000000000e+00 5.6801033020000000e+00 0.0000000000000000e+00
0.0000000000000000e+00 5.6801033020000000e+00 0.0000000000000000e+00
ITEM: ATOMS id xu yu zu fx fy fz
1    0.040000000000000    0.000000000000000    0.000000000000000   -0.172970354557037   -0.000000574393198   -0.000000003725290
2    0.000000000000000    0.000000000000000    2.840051651000000    0.001621927600354    0.000000038358849    0.000000006053597
3    0.000000000000000    2.840051651000000    0.000000000000000    0.001621835632250    0.000000705476850   -0.000000031956006
4    0.000000000000000    2.840051651000000    2.840051651000000    0.017459049820900   -0.000000076601282    0.000000046566129
5    2.880051651000000    0.000000000000000    0.000000000000000   -0.172971725463867    0.000000008847564    0.000001304084435
6    2.840051651000000    0.000000000000000    2.840051651000000    0.001621916890144    0.000000633066520   -0.000001322245225
7    2.840051651000000    2.840051651000000    0.000000000000000    0.001621674746275   -0.000000021187589    0.000000002793968
8    2.840051651000000    2.840051651000000    2.840051651000000    0.017460156232119   -0.000000750296749   -0.000000047497451
9    1.420025825500000    1.420025825500000    1.420025825500000    0.038067627698183   -0.005247275345027   -0.005246791057289
10    1.420025825500000    1.420025825500000    4.260077476500000    0.038066878914833   -0.005247252993286    0.005246834829450
11    1.420025825500000    4.260077476500000    1.420025825500000    0.038066267967224    0.005247345659882   -0.005247935187072
12    1.420025825500000    4.260077476500000    4.260077476500000    0.038066904991865    0.005247268360108    0.005247963592410
13    4.260077476500000    1.420025825500000    1.420025825500000    0.038066297769547   -0.005249229725450   -0.005247874185443
14    4.260077476500000    1.420025825500000    4.260077476500000    0.038066916167736   -0.005247922614217    0.005247866734862
15    4.260077476500000    4.260077476500000    1.420025825500000    0.038067590445280    0.005249235313386   -0.005248039029539
16    4.260077476500000    4.260077476500000    4.260077476500000    0.038066949695349    0.005247866734862    0.005248025991023
