ITEM: TIMESTEP
0
ITEM: NUMBER OF ATOMS
16
ITEM: BOX BOUNDS xy xz yz pp pp pp
0.0000000000000000e+00 5.6801033020000000e+00 0.0000000000000000e+00
0.0000000000000000e+00 5.6801033020000000e+00 0.0000000000000000e+00
0.0000000000000000e+00 5.6801033020000000e+00 0.0000000000000000e+00
ITEM: ATOMS id xu yu zu fx fy fz
1    0.040000000000000    0.000000000000000    0.000000000000000   -0.199760943651199   -0.000000024214387   -0.000000604894012
2    0.000000000000000    0.000000000000000    2.840051651000000    0.000000492669642   -0.000001342734322    0.000000627129339
3    0.000000000000000    2.840051651000000    0.000000000000000   -0.000000085216016    0.000000060070306   -0.000000051455572
4   -0.040000000000001    2.840051651000000    2.840051651000000    0.199760049581528    0.000001350126695   -0.000000081665348
5    2.840051651000000    0.000000000000000    0.000000000000000    0.014432776719332   -0.000000079511665   -0.000000657746568
6    2.840051651000000    0.000000000000000    2.840051651000000   -0.000000520958565    0.000000640284270    0.000000661239028
7    2.840051651000000    2.840051651000000    0.000000000000000    0.000000113213900    0.000000049592927    0.000000613625161
8    2.840051651000000    2.840051651000000    2.840051651000000   -0.014432009309530   -0.000000783824362   -0.000000660424121
9    1.420025825500000    1.420025825500000    1.420025825500000   -0.006150981411338    0.047321774065495    0.047321174293756
10    1.420025825500000    1.420025825500000    4.260077476500000   -0.006150962319225    0.047320473939180   -0.047321088612080
11    1.420025825500000    4.260077476500000    1.420025825500000   -0.006152999587357   -0.047321852296591    0.047322154045105
12    1.420025825500000    4.260077476500000    4.260077476500000   -0.006152932997793   -0.047320429235697   -0.047322273254395
13    4.260077476500000    1.420025825500000    1.420025825500000    0.006151064764708   -0.047320473939180   -0.047321714460850
14    4.260077476500000    1.420025825500000    4.260077476500000    0.006151000969112   -0.047321040183306    0.047321826219559
15    4.260077476500000    4.260077476500000    1.420025825500000    0.006152990274131    0.047320529818535   -0.047320477664471
16    4.260077476500000    4.260077476500000    4.260077476500000    0.006152961403131    0.047321125864983    0.047320496290922
