ITEM: TIMESTEP
0
ITEM: NUMBER OF ATOMS
16
ITEM: BOX BOUNDS xy xz yz pp pp pp
0.0000000000000000e+00 5.6801033020000000e+00 0.0000000000000000e+00
0.0000000000000000e+00 5.6801033020000000e+00 0.0000000000000000e+00
0.0000000000000000e+00 5.6801033020000000e+00 0.0000000000000000e+00
ITEM: ATOMS id xu yu zu fx fy fz
1    0.040000000000000    0.040000000000000    0.000000000000000   -0.165091097354889   -0.165092706680298   -0.000000562518835
2    0.000000000000000    0.000000000000000    2.840051651000000    0.005443308036774    0.005442779045552    0.000000535277650
3    0.000000000000000    2.840051651000000    0.000000000000000    0.006130231078714    0.020078469067812   -0.000000700820237
4    0.000000000000000    2.840051651000000    2.840051651000000    0.007309134118259   -0.000856596045196    0.000000526662916
5    2.840051651000000    0.000000000000000    0.000000000000000    0.020076896995306    0.006131431087852    0.000001149252057
6    2.840051651000000    0.000000000000000    2.840051651000000   -0.000857200007886    0.007309171371162   -0.000001293839887
7    2.840051651000000    2.840051651000000    0.000000000000000   -0.002281960565597   -0.002283202018589   -0.000000000116415
8    2.840051651000000    2.840051651000000    2.840051651000000    0.004527747165412    0.004527842625976   -0.000000101514161
9    1.420025825500000    1.420025825500000    1.420025825500000    0.031343452632427    0.031342368572950    0.041771583259106
10    1.420025825500000    1.420025825500000    4.260077476500000    0.031344868242741    0.031343027949333   -0.041771426796913
11    1.420025825500000    4.260077476500000    1.420025825500000   -0.006965122185647   -0.003290232736617   -0.000652577728033
12    1.420025825500000    4.260077476500000    4.260077476500000   -0.006963812746108   -0.003290929133072    0.000652718532365
13    4.260077476500000    1.420025825500000    1.420025825500000   -0.003291433444247   -0.006963199470192   -0.000652720569633
14    4.260077476500000    1.420025825500000    4.260077476500000   -0.003292757319286   -0.006963265594095    0.000652762886602
15    4.260077476500000    4.260077476500000    1.420025825500000    0.041284482926130    0.041282542049885   -0.043502859771252
16    4.260077476500000    4.260077476500000    4.260077476500000    0.041283272206783    0.041282597929239    0.043502900749445
