ITEM: TIMESTEP
0
ITEM: NUMBER OF ATOMS
16
ITEM: BOX BOUNDS xy xz yz pp pp pp
0.0000000000000000e+00 5.6801033020000000e+00 0.0000000000000000e+00
0.0000000000000000e+00 5.6801033020000000e+00 0.0000000000000000e+00
0.0000000000000000e+00 5.6801033020000000e+00 0.0000000000000000e+00
ITEM: ATOMS id xu yu zu fx fy fz
1    0.040000000000000    0.000000000000000    0.000000000000000   -0.198019385337830    0.008609022945166   -0.000000053842086
2    0.000000000000000    0.000000000000000    2.840051651000000    0.004262311384082   -0.003155299462378    0.000000100582838
3    0.000000000000000    2.840051651000000    0.000000000000000    0.004024610854685    0.008777510374784   -0.000000689760782
4    0.000000000000000    2.840051651000000    2.840051651000000    0.008777022361755    0.004025227855891    0.000000732950866
5    2.840051651000000    0.000000000000000    0.000000000000000    0.024319529533386   -0.001529353670776   -0.000000789295882
6    2.840051651000000    0.000000000000000    2.840051651000000   -0.001529921777546    0.024319661781192    0.000000699306838
7    2.840051651000000    2.840051651000000    0.000000000000000   -0.003154788631946    0.004261814523488   -0.000000625848770
8    2.840051651000000    2.880051651000000    2.840051651000000    0.008609618991613   -0.198019728064537    0.000000721891411
9    1.420025825500000    1.420025825500000    1.420025825500000    0.042283229529858    0.044207613915205    0.048206541687250
10    1.420025825500000    1.420025825500000    4.260077476500000    0.042283806949854    0.044206958264112   -0.048206567764282
11    1.420025825500000    4.260077476500000    1.420025825500000   -0.006014612503350   -0.006014636717737   -0.000000689120498
12    1.420025825500000    4.260077476500000    4.260077476500000   -0.006013337057084   -0.006013873964548    0.000000655534677
13    4.260077476500000    1.420025825500000    1.420025825500000   -0.004120675846934   -0.004121406003833    0.000000578758772
14    4.260077476500000    1.420025825500000    4.260077476500000   -0.004121427424252   -0.004120853263885   -0.000000602914952
15    4.260077476500000    4.260077476500000    1.420025825500000    0.044207610189915    0.042283944785595   -0.048205960541964
16    4.260077476500000    4.260077476500000    4.260077476500000    0.044206298887730    0.042283359915018    0.048205923289061
