ITEM: TIMESTEP
0
ITEM: NUMBER OF ATOMS
16
ITEM: BOX BOUNDS xy xz yz pp pp pp
0.0000000000000000e+00 5.6801033020000000e+00 0.0000000000000000e+00
0.0000000000000000e+00 5.6801033020000000e+00 0.0000000000000000e+00
0.0000000000000000e+00 5.6801033020000000e+00 0.0000000000000000e+00
ITEM: ATOMS id xu yu zu fx fy fz
1    0.040000000000000    0.000000000000000    0.000000000000000   -0.197235584259033    0.002501788549125   -0.000001386739314
2    0.000000000000000    0.000000000000000    2.840051651000000    0.004787310492247    0.023593164980412    0.000001257983968
3    0.000000000000000    2.840051651000000    0.000000000000000    0.004200162366033    0.003685296280310   -0.000000046566129
4    0.000000000000000    2.880051651000000    2.840051651000000    0.003089423291385   -0.198765337467194   -0.000000049825758
5    2.840051651000000    0.000000000000000    0.000000000000000    0.023195907473564    0.007766081020236    0.000000002561137
6    2.840051651000000    0.000000000000000    2.840051651000000   -0.002958895638585   -0.002819876652211    0.000000099418685
7    2.840051651000000    2.840051651000000    0.000000000000000   -0.002555539365858    0.008999768644571    0.000001277076080
8    2.840051651000000    2.840051651000000    2.840051651000000    0.007937110029161    0.004152249544859   -0.000001219916157
9    1.420025825500000    1.420025825500000    1.420025825500000   -0.009136750362813    0.043353762477636    0.047750771045685
10    1.420025825500000    1.420025825500000    4.260077476500000   -0.009136057458818    0.043353155255318   -0.047750864177942
11    1.420025825500000    4.260077476500000    1.420025825500000    0.039126418530941   -0.005580093711615   -0.000011251540855
12    1.420025825500000    4.260077476500000    4.260077476500000    0.039125241339207   -0.005579392425716    0.000011263065971
13    4.260077476500000    1.420025825500000    1.420025825500000    0.048065077513456   -0.003956486470997   -0.000602297950536
14    4.260077476500000    1.420025825500000    4.260077476500000    0.048064678907394   -0.003956508822739    0.000602443062235
15    4.260077476500000    4.260077476500000    1.420025825500000    0.001715100603178    0.041626177728176   -0.047536827623844
16    4.260077476500000    4.260077476500000    4.260077476500000    0.001716446480714    0.041626289486885    0.047536801546812
