ITEM: TIMESTEP
0
ITEM: NUMBER OF ATOMS
16
ITEM: BOX BOUNDS xy xz yz pp pp pp
0.0000000000000000e+00 5.6801033020000000e+00 0.0000000000000000e+00
0.0000000000000000e+00 5.6801033020000000e+00 0.0000000000000000e+00
0.0000000000000000e+00 5.6801033020000000e+00 0.0000000000000000e+00
ITEM: ATOMS id xu yu zu fx fy fz
1    0.040000000000000    0.000000000000000    0.000000000000000   -0.196750819683075    0.006670328788459    0.000000614672899
2    0.000000000000000    0.040000000000000    2.840051651000000    0.006671536248177   -0.196751102805138   -0.000000474043190
3    0.000000000000000    2.840051651000000    0.000000000000000    0.004149493761361   -0.002738919109106   -0.000000079860911
4    0.000000000000000    2.840051651000000    2.840051651000000    0.008594274520874    0.023508802056313    0.000000042957254
5    2.840051651000000    0.000000000000000    0.000000000000000    0.023508567363024    0.008594432845712   -0.000000039697625
6    2.840051651000000    0.000000000000000    2.840051651000000   -0.002740141004324    0.004149449989200    0.000000033760443
7    2.840051651000000    2.840051651000000    0.000000000000000   -0.003094855230302    0.007577267941087   -0.000000114203431
8    2.840051651000000    2.840051651000000    2.840051651000000    0.007577220909297   -0.003094782121480    0.000000037951395
9    1.420025825500000    1.420025825500000    1.420025825500000    0.037401445209980    0.037400647997856   -0.000000550004188
10    1.420025825500000    1.420025825500000    4.260077476500000    0.037400674074888    0.037400156259537    0.000000561703928
11    1.420025825500000    4.260077476500000    1.420025825500000   -0.010191513225436    0.000615828204900    0.048646885901690
12    1.420025825500000    4.260077476500000    4.260077476500000   -0.010191466659307    0.000616420293227   -0.048646949231625
13    4.260077476500000    1.420025825500000    1.420025825500000    0.000615206779912   -0.010191472247243   -0.048646382987499
14    4.260077476500000    1.420025825500000    4.260077476500000    0.000615866389126   -0.010192170739174    0.048646427690983
15    4.260077476500000    4.260077476500000    1.420025825500000    0.048217289149761    0.048217281699181   -0.000001744134352
16    4.260077476500000    4.260077476500000    4.260077476500000    0.048217270523310    0.048217840492725    0.000001817650627
