ITEM: TIMESTEP
0
ITEM: NUMBER OF ATOMS
16
ITEM: BOX BOUNDS xy xz yz pp pp pp
0.0000000000000000e+00 5.6801033020000000e+00 0.0000000000000000e+00
0.0000000000000000e+00 5.6801033020000000e+00 0.0000000000000000e+00
0.0000000000000000e+00 5.6801033020000000e+00 0.0000000000000000e+00
ITEM: ATOMS id xu yu zu fx fy fz
1    0.040000000000000    0.000000000000000    0.000000000000000   -0.198063403367996   -0.000000011001248    0.000000724336132
2    0.000000000000000    0.000000000000000    2.840051651000000   -0.019697532057762   -0.000000509200618   -0.000000579981133
3    0.000000000000000    2.840051651000000    0.000000000000000   -0.002837556879967    0.000000094296411   -0.000000502448529
4    0.000000000000000    2.840051651000000    2.840051651000000    0.012032809667289    0.000000591855496    0.000000522704795
5    2.840051651000000    0.000000000000000    0.000000000000000    0.019698180258274    0.000000057159923    0.000000752625056
6    2.800051651000000    0.000000000000000    2.840051651000000    0.198064267635345    0.000001310894731   -0.000000616535544
7    2.840051651000000    2.840051651000000    0.000000000000000   -0.012031323276460   -0.000000008847564   -0.000000615837052
8    2.840051651000000    2.840051651000000    2.840051651000000    0.002836755942553   -0.000001323060133    0.000000674626790
9    1.420025825500000    1.420025825500000    1.420025825500000    0.000000942964107    0.045244004577398   -0.000000448664650
10    1.420025825500000    1.420025825500000    4.260077476500000   -0.000001038773917    0.045244708657265    0.000000462750904
11    1.420025825500000    4.260077476500000    1.420025825500000    0.000000299478415   -0.045244246721268    0.000000142899808
12    1.420025825500000    4.260077476500000    4.260077476500000   -0.000000912579708   -0.045244704931974   -0.000000232132152
13    4.260077476500000    1.420025825500000    1.420025825500000   -0.000001476029865   -0.052274350076914    0.000000196625479
14    4.260077476500000    1.420025825500000    4.260077476500000    0.000000375031959   -0.052273061126471   -0.000000281841494
15    4.260077476500000    4.260077476500000    1.420025825500000   -0.000000763393473    0.052274253219366    0.000002060201950
16    4.260077476500000    4.260077476500000    4.260077476500000    0.000000430271029    0.052273198962212   -0.000002238899469
