ITEM: TIMESTEP
0
ITEM: NUMBER OF ATOMS
16
ITEM: BOX BOUNDS xy xz yz pp pp pp
0.0000000000000000e+00 5.6801033020000000e+00 0.0000000000000000e+00
0.0000000000000000e+00 5.6801033020000000e+00 0.0000000000000000e+00
0.0000000000000000e+00 5.6801033020000000e+00 0.0000000000000000e+00
ITEM: ATOMS id xu yu zu fx fy fz
1    0.010000000000000    0.000000000000000    0.000000000000000   -0.048513729125261   -0.000001190521289   -0.000001292733941
2    0.000000000000000    0.000000000000000    2.840051651000000    0.000889345770702    0.000000030035153    0.000001368229277
3    0.000000000000000    2.840051651000000    0.000000000000000    0.000888556824066    0.000001218984835   -0.000000101281330
4    0.000000000000000    2.840051651000000    2.840051651000000    0.003592697903514   -0.000000105705112   -0.000000126776285
5    2.840051651000000    0.000000000000000    0.000000000000000    0.005553466267884   -0.000001826789230    0.000001690466888
6    2.840051651000000    0.000000000000000    2.840051651000000   -0.001378266257234    0.000000263273250   -0.000001921493094
7    2.840051651000000    2.840051651000000    0.000000000000000   -0.001377715962008    0.000001863751095   -0.000000619213097
8    2.840051651000000    2.840051651000000    2.840051651000000    0.002392799360678   -0.000000062864274    0.000000679283403
9    1.420025825500000    1.420025825500000    1.420025825500000    0.003989692777395    0.006731245201081    0.006729378364980
10    1.420025825500000    1.420025825500000    4.260077476500000    0.003990384750068    0.006729236803949   -0.006729323882610
11    1.420025825500000    4.260077476500000    1.420025825500000    0.003989607561380   -0.006731236353517    0.006730487104505
12    1.420025825500000    4.260077476500000    4.260077476500000    0.003989052027464   -0.006729296408594   -0.006730468012393
13    4.260077476500000    1.420025825500000    1.420025825500000    0.005498458631337   -0.007886014878750   -0.007887079380453
14    4.260077476500000    1.420025825500000    4.260077476500000    0.005497836042196   -0.007885376922786    0.007887283340096
15    4.260077476500000    4.260077476500000    1.420025825500000    0.005498583894223    0.007885905914009   -0.007886597886682
16    4.260077476500000    4.260077476500000    4.260077476500000    0.005499106831849    0.007885328494012    0.007886593230069
