ITEM: TIMESTEP
0
ITEM: NUMBER OF ATOMS
16
ITEM: BOX BOUNDS xy xz yz pp pp pp
0.0000000000000000e+00 5.6801033020000000e+00 0.0000000000000000e+00
0.0000000000000000e+00 5.6801033020000000e+00 0.0000000000000000e+00
0.0000000000000000e+00 5.6801033020000000e+00 0.0000000000000000e+00
ITEM: ATOMS id xu yu zu fx fy fz
1    0.040000000000000    0.000000000000000    0.000000000000000   -0.191747814416885    0.000000606290996    0.000000657513738
2    0.040000000000000    0.000000000000000    2.840051651000000   -0.191746175289154    0.000000500236638   -0.000000528991222
3    0.000000000000000    2.840051651000000    0.000000000000000    0.013075480237603   -0.000000630505383   -0.000001254491508
4    0.000000000000000    2.840051651000000    2.840051651000000    0.013076759874821   -0.000000529340468    0.000001314212568
5    2.840051651000000    0.000000000000000    0.000000000000000    0.021597050130367    0.000000584230293    0.000000581610948
6    2.840051651000000    0.000000000000000    2.840051651000000    0.021595370024443   -0.000000092783011   -0.000000673811883
7    2.840051651000000    2.840051651000000    0.000000000000000    0.004567047581077   -0.000000605825335    0.000001212349162
8    2.840051651000000    2.840051651000000    2.840051651000000    0.004565995186567   -0.000000016065314   -0.000001247273758
9    1.420025825500000    1.420025825500000    1.420025825500000    0.032382179051638    0.043096154928207    0.000001167005394
10    1.420025825500000    1.420025825500000    4.260077476500000    0.032383374869823    0.043095104396343   -0.000001273874659
11    1.420025825500000    4.260077476500000    1.420025825500000    0.032383922487497   -0.043096236884594   -0.000000508502126
12    1.420025825500000    4.260077476500000    4.260077476500000    0.032381441444159   -0.043094970285892    0.000000633299351
13    4.260077476500000    1.420025825500000    1.420025825500000    0.043872002512217   -0.052098277956247   -0.000001223059371
14    4.260077476500000    1.420025825500000    4.260077476500000    0.043870810419321   -0.052098266780376    0.000001219741534
15    4.260077476500000    4.260077476500000    1.420025825500000    0.043870009481907    0.052098173648119   -0.000000047730282
16    4.260077476500000    4.260077476500000    4.260077476500000    0.043872624635696    0.052098359912634   -0.000000031897798
