ITEM: TIMESTEP
0
ITEM: NUMBER OF ATOMS
16
ITEM: BOX BOUNDS xy xz yz pp pp pp
0.0000000000000000e+00 5.6801033020000000e+00 0.0000000000000000e+00
0.0000000000000000e+00 5.6801033020000000e+00 0.0000000000000000e+00
0.0000000000000000e+00 5.6801033020000000e+00 0.0000000000000000e+00
ITEM: ATOMS id xu yu zu fx fy fz
1    0.040000000000000    0.000000000000000    0.000000000000000   -0.215485796332359   -0.000000043073669   -0.000000022235326
2    0.000000000000000    0.000000000000000    2.840051651000000    0.007250780239701   -0.000000188359991    0.000000016298145
3    0.000000000000000    2.840051651000000    0.000000000000000    0.007251461967826    0.000000098021701   -0.000000049360096
4    0.000000000000000    2.840051651000000    2.840051651000000    0.001347448909655    0.000000026600901   -0.000000003899913
5    2.800051651000000    0.000000000000000    0.000000000000000    0.215487405657768   -0.000000011757948   -0.000000040861778
6    2.840051651000000    0.000000000000000    2.840051651000000   -0.007250837050378   -0.000000689877197    0.000000008265488
7    2.840051651000000    2.840051651000000    0.000000000000000   -0.007251538336277    0.000000142492354   -0.000000073574483
8    2.840051651000000    2.840051651000000    2.840051651000000   -0.001346690347418    0.000000719563104   -0.000000005471520
9    1.420025825500000    1.420025825500000    1.420025825500000   -0.000000182422809    0.042573481798172    0.042571686208248
10    1.420025825500000    1.420025825500000    4.260077476500000   -0.000001580978278    0.042573560029268   -0.042571574449539
11    1.420025825500000    4.260077476500000    1.420025825500000   -0.000000295171048   -0.042573496699333    0.042572204023600
12    1.420025825500000    4.260077476500000    4.260077476500000   -0.000000328174792   -0.042573586106300   -0.042572207748890
13    4.260077476500000    1.420025825500000    1.420025825500000   -0.000000225438271   -0.052437581121922   -0.052438173443079
14    4.260077476500000    1.420025825500000    4.260077476500000    0.000000962521881   -0.052436921745539    0.052438188344240
15    4.260077476500000    4.260077476500000    1.420025825500000   -0.000000227941200    0.052437607198954   -0.052436891943216
16    4.260077476500000    4.260077476500000    4.260077476500000   -0.000000186031684    0.052436962723732    0.052436873316765
