ITEM: TIMESTEP
0
ITEM: NUMBER OF ATOMS
16
ITEM: BOX BOUNDS xy xz yz pp pp pp
0.0000000000000000e+00 5.6801033020000000e+00 0.0000000000000000e+00
0.0000000000000000e+00 5.6801033020000000e+00 0.0000000000000000e+00
0.0000000000000000e+00 5.6801033020000000e+00 0.0000000000000000e+00
ITEM: ATOMS id xu yu zu fx fy fz
1    0.040000000000000    0.000000000000000    0.000000000000000   -0.195447310805321   -0.000000088359229    0.000000010943040
2    0.000000000000000    0.000000000000000    2.840051651000000    0.027828006073833   -0.000001230975613   -0.000000039464794
3    0.000000000000000    2.840051651000000    0.000000000000000    0.011754786595702    0.000000079628080    0.000000714324415
4    0.000000000000000    2.840051651000000    2.840051651000000    0.006752394605428    0.000001203035936   -0.000000604719389
5    2.840051651000000    0.000000000000000    0.000000000000000    0.027828004211187   -0.000000042840838    0.000001367880031
6    2.880051651000000    0.000000000000000    2.840051651000000   -0.195447176694870   -0.000000053318217   -0.000001344131306
7    2.840051651000000    2.840051651000000    0.000000000000000    0.006751275155693    0.000000005704351   -0.000000647327397
8    2.840051651000000    2.840051651000000    2.840051651000000    0.011753526516259   -0.000000040745363    0.000000644475222
9    1.420025825500000    1.420025825500000    1.420025825500000    0.037278324365616   -0.004503381438553    0.047416798770428
10    1.420025825500000    1.420025825500000    4.260077476500000    0.037278357893229   -0.004505918826908   -0.047416884452105
11    1.420025825500000    4.260077476500000    1.420025825500000    0.037277653813362    0.004503347445279    0.047416850924492
12    1.420025825500000    4.260077476500000    4.260077476500000    0.037278890609741    0.004505987744778   -0.047416757792234
13    4.260077476500000    1.420025825500000    1.420025825500000    0.037278406322002   -0.004505259450525   -0.047416780143976
14    4.260077476500000    1.420025825500000    4.260077476500000    0.037278316915035   -0.004504654556513    0.047416776418686
15    4.260077476500000    4.260077476500000    1.420025825500000    0.037278827279806    0.004505360964686   -0.047416258603334
16    4.260077476500000    4.260077476500000    4.260077476500000    0.037277664989233    0.004504649434239    0.047416139394045
