ITEM: TIMESTEP
0
ITEM: NUMBER OF ATOMS
16
ITEM: BOX BOUNDS xy xz yz pp pp pp
0.0000000000000000e+00 5.6801033020000000e+00 0.0000000000000000e+00
0.0000000000000000e+00 5.6801033020000000e+00 0.0000000000000000e+00
0.0000000000000000e+00 5.6801033020000000e+00 0.0000000000000000e+00
ITEM: ATOMS id xu yu zu fx fy fz
1    0.040000000000000    0.000000000000000    0.000000000000000   -0.201837494969368    0.000001781736501    0.000001296808477
2   -0.040000000000001    0.000000000000000    2.840051651000000    0.201837673783302    0.000000013038516   -0.000001299893484
3    0.000000000000000    2.840051651000000    0.000000000000000   -0.005242814775556   -0.000001857988536   -0.000000061001629
4    0.000000000000000    2.840051651000000    2.840051651000000    0.005244108848274    0.000000178581104   -0.000000008381903
5    2.840051651000000    0.000000000000000    0.000000000000000    0.026164611801505   -0.000001314445399    0.000001399195753
6    2.840051651000000    0.000000000000000    2.840051651000000   -0.026164852082729   -0.000000023515895   -0.000001277308911
7    2.840051651000000    2.840051651000000    0.000000000000000   -0.010603211820126    0.000001269392669    0.000000561587512
8    2.840051651000000    2.840051651000000    2.840051651000000    0.010602049529552    0.000000025145710   -0.000000656582415
9    1.420025825500000    1.420025825500000    1.420025825500000   -0.006844772957265   -0.004554544109851    0.048787146806717
10    1.420025825500000    1.420025825500000    4.260077476500000   -0.006844166200608   -0.004555181600153   -0.048787124454975
11    1.420025825500000    4.260077476500000    1.420025825500000   -0.006843699607998    0.004554549232125    0.048787139356136
12    1.420025825500000    4.260077476500000    4.260077476500000   -0.006844948977232    0.004554994404316   -0.048787094652653
13    4.260077476500000    1.420025825500000    1.420025825500000    0.006844893097878   -0.004556987434626   -0.048785727471113
14    4.260077476500000    1.420025825500000    4.260077476500000    0.006844229530543   -0.004556396044791    0.048785723745823
15    4.260077476500000    4.260077476500000    1.420025825500000    0.006843438372016    0.004557104781270   -0.048785757273436
16    4.260077476500000    4.260077476500000    4.260077476500000    0.006844966672361    0.004556371830404    0.048785768449306
