ITEM: TIMESTEP
0
ITEM: NUMBER OF ATOMS
16
ITEM: BOX BOUNDS xy xz yz pp pp pp
0.0000000000000000e+00 5.6801033020000000e+00 0.0000000000000000e+00
0.0000000000000000e+00 5.6801033020000000e+00 0.0000000000000000e+00
0.0000000000000000e+00 5.6801033020000000e+00 0.0000000000000000e+00
ITEM: ATOMS id xu yu zu fx fy fz
1    0.040000000000000    0.000000000000000    0.000000000000000   -0.198292911052704    0.000000713276677   -0.000001195003279
2    0.000000000000000    0.000000000000000    2.840051651000000    0.004011400043964    0.000000162981451    0.000001208158210
3    0.000000000000000    2.840051651000000    0.000000000000000    0.004011926241219   -0.000000662868842   -0.000000005355105
4    0.000000000000000    2.840051651000000    2.840051651000000    0.008636199869215   -0.000000107334927    0.000000005820766
5    2.840051651000000    0.000000000000000    0.000000000000000    0.024294078350067   -0.000000559724867   -0.000000061700121
6    2.840051651000000    0.000000000000000    2.840051651000000   -0.002225625328720    0.000000170781277    0.000000049418304
7    2.840051651000000    2.840051651000000    0.000000000000000   -0.002226200420409    0.000000605825335    0.000000011059456
8    2.840051651000000    2.840051651000000    2.840051651000000    0.007284678518772   -0.000000111875124    0.000000033294782
9    1.420025825500000    1.420025825500000    1.420025825500000    0.016291322186589    0.022189946845174    0.022190701216459
10    1.420025825500000    1.420025825500000    4.260077476500000    0.016291968524456    0.022190701216459   -0.022190794348717
11    1.420025825500000    4.260077476500000    1.420025825500000    0.016288835555315   -0.022189969196916    0.022191978991032
12    1.420025825500000    4.260077476500000    4.260077476500000    0.016290694475174   -0.022190650925040   -0.022191938012838
13    4.260077476500000    1.420025825500000    1.420025825500000    0.022335361689329   -0.026346351951361   -0.026346798986197
14    4.260077476500000    1.420025825500000    4.260077476500000    0.022334653884172   -0.026346247643232    0.026346724480391
15    4.260077476500000    4.260077476500000    1.420025825500000    0.022337775677443    0.026346202939749   -0.026347383856773
16    4.260077476500000    4.260077476500000    4.260077476500000    0.022335968911648    0.026346204802394    0.026347484439611
