ITEM: TIMESTEP
0
ITEM: NUMBER OF ATOMS
16
ITEM: BOX BOUNDS xy xz yz pp pp pp
0.0000000000000000e+00 5.6801033020000000e+00 0.0000000000000000e+00
0.0000000000000000e+00 5.6801033020000000e+00 0.0000000000000000e+00
0.0000000000000000e+00 5.6801033020000000e+00 0.0000000000000000e+00
ITEM: ATOMS id xu yu zu fx fy fz
1    0.040000000000000    0.000000000000000    0.000000000000000   -0.195905327796936   -0.000000588130206    0.016941253095865
2    0.000000000000000    0.000000000000000    2.880051651000000    0.006933278869838    0.000001153559424   -0.191731616854668
3    0.000000000000000    2.840051651000000    0.000000000000000    0.004619924817234    0.000000618281774   -0.002933819778264
4    0.000000000000000    2.840051651000000    2.840051651000000    0.009037479758263   -0.000001305597834    0.004378905985504
5    2.840051651000000    0.000000000000000    0.000000000000000    0.023738766089082    0.000000649830326   -0.002627219073474
6    2.840051651000000    0.000000000000000    2.840051651000000   -0.002540348563343   -0.000000048894435    0.004009095020592
7    2.840051651000000    2.840051651000000    0.000000000000000   -0.002991677261889   -0.000000515836291    0.007929491810501
8    2.840051651000000    2.840051651000000    2.840051651000000    0.006968109402806    0.000000152271241    0.009520451538265
9    1.420025825500000    1.420025825500000    1.420025825500000   -0.011121682822704   -0.005683518946171    0.044230990111828
10    1.420025825500000    1.420025825500000    4.260077476500000    0.037182614207268    0.043156057596207   -0.005624819546938
11    1.420025825500000    4.260077476500000    1.420025825500000   -0.011120960116386    0.005683403927833    0.044230289757252
12    1.420025825500000    4.260077476500000    4.260077476500000    0.037180043756962   -0.043156001716852   -0.005624210461974
13    4.260077476500000    1.420025825500000    1.420025825500000    0.048458579927683   -0.052136249840260   -0.003841460682452
14    4.260077476500000    1.420025825500000    4.260077476500000    0.000550528988242   -0.004651446826756    0.042492117732763
15    4.260077476500000    4.260077476500000    1.420025825500000    0.048457760363817    0.052136220037937   -0.003841472789645
16    4.260077476500000    4.260077476500000    4.260077476500000    0.000552905956283    0.004651484079659    0.042491979897022
