ITEM: TIMESTEP
0
ITEM: NUMBER OF ATOMS
16
ITEM: BOX BOUNDS xy xz yz pp pp pp
0.0000000000000000e+00 5.6801033020000000e+00 0.0000000000000000e+00
0.0000000000000000e+00 5.6801033020000000e+00 0.0000000000000000e+00
0.0000000000000000e+00 5.6801033020000000e+00 0.0000000000000000e+00
ITEM: ATOMS id xu yu zu fx fy fz
1    0.040000000000000    0.000000000000000    0.000000000000000   -0.197755828499794    0.000000588595867    0.000000663916580
2    0.000000000000000    0.000000000000000    2.840051651000000    0.008213715627789    0.000002038665116   -0.000000577536412
3    0.000000000000000    2.840051651000000    0.000000000000000    0.008211793377995   -0.000000612228177   -0.000000011117663
4    0.040000000000000    2.840051651000000    2.840051651000000   -0.197754025459290   -0.000001978012733    0.000000037951395
5    2.840051651000000    0.000000000000000    0.000000000000000    0.030827667564154   -0.000000008614734   -0.000000033061951
6    2.840051651000000    0.000000000000000    2.840051651000000   -0.005254491232336   -0.000000074738637    0.000000032130629
7    2.840051651000000    2.840051651000000    0.000000000000000   -0.005252410657704    0.000000021420419    0.000000584870577
8    2.840051651000000    2.840051651000000    2.840051651000000    0.030825801193714   -0.000000003026798   -0.000000500236638
9    1.420025825500000    1.420025825500000    1.420025825500000    0.035293236374855    0.000000724452548    0.000000130443368
10    1.420025825500000    1.420025825500000    4.260077476500000    0.035295832902193   -0.000000613275915   -0.000000214437023
11    1.420025825500000    4.260077476500000    1.420025825500000    0.035294491797686   -0.000000570318662   -0.000000551284757
12    1.420025825500000    4.260077476500000    4.260077476500000    0.035295836627483    0.000000592786819    0.000000602274667
13    4.260077476500000    1.420025825500000    1.420025825500000    0.046691138297319    0.000000609899871   -0.000000001164153
14    4.260077476500000    1.420025825500000    4.260077476500000    0.046688742935658    0.000000665371772   -0.000000152096618
15    4.260077476500000    4.260077476500000    1.420025825500000    0.046690046787262   -0.000000726198778   -0.000000656815246
16    4.260077476500000    4.260077476500000    4.260077476500000    0.046688597649336   -0.000000713218469    0.000000567117240
