# Structure data of Tl (2x2x2 conventional) 

16 atoms
1 atom types

0.0 7.0978484154 xlo xhi
0.0 6.1469170399 ylo yhi
0.0 11.4768276215 zlo zhi
-3.5489242077 0.0 0.0 xy xz yz

Masses

1 204.3833  # Tl

Atoms  # atomic

1 1 1.7744621535 1.0244862061 1.4346034527
2 1 1.7744621535 1.0244862061 7.1730172634
3 1 -3.5489238215e-09 4.0979448183 1.4346034527
4 1 -3.5489238215e-09 4.0979448183 7.1730172634
5 1 5.3233865742 1.0244862061 1.4346034527
6 1 5.3233865742 1.0244862061 7.1730172634
7 1 3.5489244171 4.0979448183 1.4346034527
8 1 3.5489244171 4.0979448183 7.1730172634
9 1 3.5489240435e-09 2.0489724061 4.3038103581
10 1 3.5489240435e-09 2.0489724061 10.0422241688
11 1 -1.7744622068 5.1224311104 4.3038103581
12 1 -1.7744622068 5.1224311104 10.0422241688
13 1 3.5489243177 2.0489724061 4.3038103581
14 1 3.5489243177 2.0489724061 10.0422241688
15 1 1.7744621074 5.1224311104 4.3038103581
16 1 1.7744621074 5.1224311104 10.0422241688
