Disp. Num. 173 ( 0.040000 Angstrom, 65 : -x, 81 : +y)

128 atoms
3 atom types

0.0 11.4153280258 xlo xhi
0.0 11.4153280258 ylo yhi
0.0 11.4153280258 zlo zhi
0.000000    0.000000    0.000000   xy xz yz

Masses

1 26.981538  # Al
2 50.9415  # V
3 55.845  # Fe

Atoms

    1   1   0.000000000000000   0.000000000000000   0.000000000000000
    2   1   0.000000000000000   0.000000000000000   5.707664012900000
    3   1   0.000000000000000   5.707664012900000   0.000000000000000
    4   1   0.000000000000000   5.707664012900000   5.707664012900000
    5   1   5.707664012900000   0.000000000000000   0.000000000000000
    6   1   5.707664012900000   0.000000000000000   5.707664012900000
    7   1   5.707664012900000   5.707664012900000   0.000000000000000
    8   1   5.707664012900000   5.707664012900000   5.707664012900000
    9   1   0.000000000000000   2.853832006400000   2.853832006400000
   10   1   0.000000000000000   2.853832006400000   8.561496019300000
   11   1   0.000000000000000   8.561496019300000   2.853832006400000
   12   1   0.000000000000000   8.561496019300000   8.561496019300000
   13   1   5.707664012900000   2.853832006400000   2.853832006400000
   14   1   5.707664012900000   2.853832006400000   8.561496019300000
   15   1   5.707664012900000   8.561496019300000   2.853832006400000
   16   1   5.707664012900000   8.561496019300000   8.561496019300000
   17   1   2.853832006400000   0.000000000000000   2.853832006400000
   18   1   2.853832006400000   0.000000000000000   8.561496019300000
   19   1   2.853832006400000   5.707664012900000   2.853832006400000
   20   1   2.853832006400000   5.707664012900000   8.561496019300000
   21   1   8.561496019300000   0.000000000000000   2.853832006400000
   22   1   8.561496019300000   0.000000000000000   8.561496019300000
   23   1   8.561496019300000   5.707664012900000   2.853832006400000
   24   1   8.561496019300000   5.707664012900000   8.561496019300000
   25   1   2.853832006400000   2.853832006400000   0.000000000000000
   26   1   2.853832006400000   2.853832006400000   5.707664012900000
   27   1   2.853832006400000   8.561496019300000   0.000000000000000
   28   1   2.853832006400000   8.561496019300000   5.707664012900000
   29   1   8.561496019300000   2.853832006400000   0.000000000000000
   30   1   8.561496019300000   2.853832006400000   5.707664012900000
   31   1   8.561496019300000   8.561496019300000   0.000000000000000
   32   1   8.561496019300000   8.561496019300000   5.707664012900000
   33   2   2.853832006400000   0.000000000000000   0.000000000000000
   34   2   2.853832006400000   0.000000000000000   5.707664012900000
   35   2   2.853832006400000   5.707664012900000   0.000000000000000
   36   2   2.853832006400000   5.707664012900000   5.707664012900000
   37   2   8.561496019300000   0.000000000000000   0.000000000000000
   38   2   8.561496019300000   0.000000000000000   5.707664012900000
   39   2   8.561496019300000   5.707664012900000   0.000000000000000
   40   2   8.561496019300000   5.707664012900000   5.707664012900000
   41   2   2.853832006400000   2.853832006400000   2.853832006400000
   42   2   2.853832006400000   2.853832006400000   8.561496019300000
   43   2   2.853832006400000   8.561496019300000   2.853832006400000
   44   2   2.853832006400000   8.561496019300000   8.561496019300000
   45   2   8.561496019300000   2.853832006400000   2.853832006400000
   46   2   8.561496019300000   2.853832006400000   8.561496019300000
   47   2   8.561496019300000   8.561496019300000   2.853832006400000
   48   2   8.561496019300000   8.561496019300000   8.561496019300000
   49   2   0.000000000000000   0.000000000000000   2.853832006400000
   50   2   0.000000000000000   0.000000000000000   8.561496019300000
   51   2   0.000000000000000   5.707664012900000   2.853832006400000
   52   2   0.000000000000000   5.707664012900000   8.561496019300000
   53   2   5.707664012900000   0.000000000000000   2.853832006400000
   54   2   5.707664012900000   0.000000000000000   8.561496019300000
   55   2   5.707664012900000   5.707664012900000   2.853832006400000
   56   2   5.707664012900000   5.707664012900000   8.561496019300000
   57   2   0.000000000000000   2.853832006400000   0.000000000000000
   58   2   0.000000000000000   2.853832006400000   5.707664012900000
   59   2   0.000000000000000   8.561496019300000   0.000000000000000
   60   2   0.000000000000000   8.561496019300000   5.707664012900000
   61   2   5.707664012900000   2.853832006400000   0.000000000000000
   62   2   5.707664012900000   2.853832006400000   5.707664012900000
   63   2   5.707664012900000   8.561496019300000   0.000000000000000
   64   2   5.707664012900000   8.561496019300000   5.707664012900000
   65   3   1.386916003200000   4.280748009700000   4.280748009700000
   66   3   1.426916003200000   4.280748009700000   9.988412022600000
   67   3   1.426916003200000   9.988412022600000   4.280748009700000
   68   3   1.426916003200000   9.988412022600000   9.988412022600000
   69   3   7.134580016100000   4.280748009700000   4.280748009700000
   70   3   7.134580016100000   4.280748009700000   9.988412022600000
   71   3   7.134580016100000   9.988412022600000   4.280748009700000
   72   3   7.134580016100000   9.988412022600000   9.988412022600000
   73   3   1.426916003200000   1.426916003200000   4.280748009700000
   74   3   1.426916003200000   1.426916003200000   9.988412022600000
   75   3   1.426916003200000   7.134580016100000   4.280748009700000
   76   3   1.426916003200000   7.134580016100000   9.988412022600000
   77   3   7.134580016100000   1.426916003200000   4.280748009700000
   78   3   7.134580016100000   1.426916003200000   9.988412022600000
   79   3   7.134580016100000   7.134580016100000   4.280748009700000
   80   3   7.134580016100000   7.134580016100000   9.988412022600000
   81   3   1.426916003200000   1.466916003200000   1.426916003200000
   82   3   1.426916003200000   1.426916003200000   7.134580016100000
   83   3   1.426916003200000   7.134580016100000   1.426916003200000
   84   3   1.426916003200000   7.134580016100000   7.134580016100000
   85   3   7.134580016100000   1.426916003200000   1.426916003200000
   86   3   7.134580016100000   1.426916003200000   7.134580016100000
   87   3   7.134580016100000   7.134580016100000   1.426916003200000
   88   3   7.134580016100000   7.134580016100000   7.134580016100000
   89   3   1.426916003200000   4.280748009700000   1.426916003200000
   90   3   1.426916003200000   4.280748009700000   7.134580016100000
   91   3   1.426916003200000   9.988412022600000   1.426916003200000
   92   3   1.426916003200000   9.988412022600000   7.134580016100000
   93   3   7.134580016100000   4.280748009700000   1.426916003200000
   94   3   7.134580016100000   4.280748009700000   7.134580016100000
   95   3   7.134580016100000   9.988412022600000   1.426916003200000
   96   3   7.134580016100000   9.988412022600000   7.134580016100000
   97   3   4.280748009700000   4.280748009700000   1.426916003200000
   98   3   4.280748009700000   4.280748009700000   7.134580016100000
   99   3   4.280748009700000   9.988412022600000   1.426916003200000
  100   3   4.280748009700000   9.988412022600000   7.134580016100000
  101   3   9.988412022600000   4.280748009700000   1.426916003200000
  102   3   9.988412022600000   4.280748009700000   7.134580016100000
  103   3   9.988412022600000   9.988412022600000   1.426916003200000
  104   3   9.988412022600000   9.988412022600000   7.134580016100000
  105   3   4.280748009700000   1.426916003200000   1.426916003200000
  106   3   4.280748009700000   1.426916003200000   7.134580016100000
  107   3   4.280748009700000   7.134580016100000   1.426916003200000
  108   3   4.280748009700000   7.134580016100000   7.134580016100000
  109   3   9.988412022600000   1.426916003200000   1.426916003200000
  110   3   9.988412022600000   1.426916003200000   7.134580016100000
  111   3   9.988412022600000   7.134580016100000   1.426916003200000
  112   3   9.988412022600000   7.134580016100000   7.134580016100000
  113   3   4.280748009700000   1.426916003200000   4.280748009700000
  114   3   4.280748009700000   1.426916003200000   9.988412022600000
  115   3   4.280748009700000   7.134580016100000   4.280748009700000
  116   3   4.280748009700000   7.134580016100000   9.988412022600000
  117   3   9.988412022600000   1.426916003200000   4.280748009700000
  118   3   9.988412022600000   1.426916003200000   9.988412022600000
  119   3   9.988412022600000   7.134580016100000   4.280748009700000
  120   3   9.988412022600000   7.134580016100000   9.988412022600000
  121   3   4.280748009700000   4.280748009700000   4.280748009700000
  122   3   4.280748009700000   4.280748009700000   9.988412022600000
  123   3   4.280748009700000   9.988412022600000   4.280748009700000
  124   3   4.280748009700000   9.988412022600000   9.988412022600000
  125   3   9.988412022600000   4.280748009700000   4.280748009700000
  126   3   9.988412022600000   4.280748009700000   9.988412022600000
  127   3   9.988412022600000   9.988412022600000   4.280748009700000
  128   3   9.988412022600000   9.988412022600000   9.988412022600000

