LAMMPS (2 Aug 2023)
units           metal
atom_style      atomic
boundary        p p p

read_data       tmp.lammps
Reading data file ...
  triclinic box = (0 0 0) to (11.415328 11.415328 11.415328) with tilt (0 0 0)
  1 by 1 by 1 MPI processor grid
  reading atoms ...
  128 atoms
  read_data CPU = 0.007 seconds

pair_style    chgnet /mnt/d/lammps/potentials/CHGNET
#pair_style    chgnet/d3 /mnt/d/lammps/potentials/CHGNET
#pair_style    chgnet/gpu /mnt/d/lammps/potentials/CHGNET
#pair_style    chgnet/d3/gpu /mnt/d/lammps/potentials/CHGNET

variable elem string "Al V Fe "

pair_coeff    * *  0.3.0 ${elem}
pair_coeff    * *  0.3.0 Al V Fe 
ERROR: Cannot initialize python for pair_coeff of CHGNet. (../pair_chgnet.cpp:519)
Last command: pair_coeff    * *  0.3.0 ${elem}
