ITEM: TIMESTEP
0
ITEM: NUMBER OF ATOMS
128
ITEM: BOX BOUNDS xy xz yz pp pp pp
0.0000000000000000e+00 1.1415328025799999e+01 0.0000000000000000e+00
0.0000000000000000e+00 1.1415328025799999e+01 0.0000000000000000e+00
0.0000000000000000e+00 1.1415328025799999e+01 0.0000000000000000e+00
ITEM: ATOMS id xu yu zu fx fy fz
1    0.000000000000000    0.000000000000000    0.000000000000000    0.014062605798244    0.000011366282706    0.000011696654838
9    0.000000000000000    2.853832006400000    2.853832006400000    0.000728029175662   -0.000230727717280   -0.000230401754379
17    2.853832006400000    0.000000000000000    2.853832006400000   -0.001000117510557    0.000011105090380   -0.000335730612278
25    2.853832006400000    2.853832006400000    0.000000000000000   -0.000997213646770   -0.000335335731506    0.000011840835214
33    2.863832006400000    0.000000000000000    0.000000000000000   -0.030581310391426   -0.000012382864952   -0.000000603497028
41    2.853832006400000    2.853832006400000    2.853832006400000   -0.001978114247322    0.000359684228897    0.000358417630196
49    0.000000000000000    0.000000000000000    2.853832006400000    0.000671327114105    0.000007905066013   -0.000215530395508
57    0.000000000000000    2.853832006400000    0.000000000000000    0.000670772045851   -0.000216722488403    0.000009294599295
65    1.426916003200000    4.280748009700000    4.280748009700000   -0.000109508633614    0.000065639615059    0.000059857964516
73    1.426916003200000    1.426916003200000    4.280748009700000    0.000090597444796    0.000047504901886    0.000263810157776
81    1.426916003200000    1.426916003200000    1.426916003200000   -0.001106999581680   -0.000714667141438   -0.000715941190720
89    1.426916003200000    4.280748009700000    1.426916003200000    0.000091536901891    0.000265140086412    0.000045180320740
97    4.280748009700000    4.280748009700000    1.426916003200000    0.000023983418941   -0.000372186303139   -0.000096917152405
105    4.280748009700000    1.426916003200000    1.426916003200000    0.001712248660624    0.000620186328888    0.000619264319539
113    4.280748009700000    1.426916003200000    4.280748009700000    0.000024177134037   -0.000095458701253   -0.000372722744942
121    4.280748009700000    4.280748009700000    4.280748009700000   -0.000093877315521   -0.000053137540817   -0.000053495168686
5    5.707664012900000    0.000000000000000    0.000000000000000    0.012392342090607    0.000011891126633    0.000014565885067
13    5.707664012900000    2.853832006400000    2.853832006400000    0.000658303499222    0.000082629732788    0.000082428567111
21    8.561496019300000    0.000000000000000    2.853832006400000    0.000287197530270    0.000013755634427   -0.000020880252123
29    8.561496019300000    2.853832006400000    0.000000000000000    0.000288680195808   -0.000021055340767    0.000013485550880
37    8.561496019300000    0.000000000000000    0.000000000000000   -0.001446820795536    0.000010184943676    0.000010080635548
45    8.561496019300000    2.853832006400000    2.853832006400000   -0.000167906284332   -0.000014379620552   -0.000012151896954
53    5.707664012900000    0.000000000000000    2.853832006400000    0.001157861202955    0.000008150935173    0.000747673213482
61    5.707664012900000    2.853832006400000    0.000000000000000    0.001156058162451    0.000751238316298    0.000007057562470
69    7.134580016099999    4.280748009700000    4.280748009700000    0.000029139220715    0.000051155686378    0.000049501657486
77    7.134580016099999    1.426916003200000    4.280748009700000    0.000012502074242   -0.000021815299988    0.000104412436485
85    7.134580016099999    1.426916003200000    1.426916003200000    0.000258266925812    0.000484511256218    0.000485509634018
93    7.134580016099999    4.280748009700000    1.426916003200000    0.000010415911674    0.000105308368802   -0.000020846724510
101    9.988412022600000    4.280748009700000    1.426916003200000   -0.000007515834113   -0.000100314617157    0.000047042965889
109    9.988412022600000    1.426916003200000    1.426916003200000    0.000101088495285   -0.000366538763046   -0.000363782048225
117    9.988412022600000    1.426916003200000    4.280748009700000   -0.000010791812201    0.000046826899052   -0.000103289901745
125    9.988412022600000    4.280748009700000    4.280748009700000    0.000013515353203   -0.000035479664803   -0.000034414231777
3    0.000000000000000    5.707664012900000    0.000000000000000    0.000020534062060    0.000008612871170    0.000012189149857
11    0.000000000000000    8.561496019300000    2.853832006400000    0.000729514867999    0.000212326645851   -0.000230089761317
19    2.853832006400000    5.707664012900000    2.853832006400000   -0.000215074047446    0.000006824731827   -0.000014329329133
27    2.853832006400000    8.561496019300000    0.000000000000000   -0.000998439267278    0.000329583883286    0.000011906027794
35    2.853832006400000    5.707664012900000    0.000000000000000    0.000105366110802    0.000002980232239    0.000008173286915
43    2.853832006400000    8.561496019300000    2.853832006400000   -0.001978479325771   -0.000372201204300    0.000357948243618
51    0.000000000000000    5.707664012900000    2.853832006400000    0.000068016350269    0.000004038214684    0.000062145292759
59    0.000000000000000    8.561496019300000    0.000000000000000    0.000672090798616    0.000203123316169    0.000008752103895
67    1.426916003200000    9.988412022600000    4.280748009700000    0.000091189518571   -0.000043258070946    0.000257715582848
75    1.426916003200000    7.134580016099999    4.280748009700000   -0.000110157161544   -0.000066727399826    0.000061437487602
83    1.426916003200000    7.134580016099999    1.426916003200000    0.000089826047770   -0.000261306762695    0.000047445297241
91    1.426916003200000    9.988412022600000    1.426916003200000   -0.001110384473577    0.000716440379620   -0.000711560249329
99    4.280748009700000    9.988412022600000    1.426916003200000    0.001719050109386   -0.000616461038589    0.000618606805801
107    4.280748009700000    7.134580016099999    1.426916003200000    0.000020474195480    0.000374019145966   -0.000092938542366
115    4.280748009700000    7.134580016099999    4.280748009700000   -0.000092849135399    0.000051729381084   -0.000054329633713
123    4.280748009700000    9.988412022600000    4.280748009700000    0.000023007392883    0.000096760690212   -0.000374220311642
7    5.707664012900000    5.707664012900000    0.000000000000000   -0.000008240342140    0.000010684132576    0.000012844800949
15    5.707664012900000    8.561496019300000    2.853832006400000    0.000657081604004   -0.000102773308754    0.000083211809397
23    8.561496019300000    5.707664012900000    2.853832006400000    0.000045955181122    0.000006973743439   -0.000003119930625
31    8.561496019300000    8.561496019300000    0.000000000000000    0.000285960733891   -0.000000834465027    0.000014174729586
39    8.561496019300000    5.707664012900000    0.000000000000000   -0.000106040388346    0.000003539025784    0.000008987206456
47    8.561496019300000    8.561496019300000    2.853832006400000   -0.000169966369867   -0.000000944361091   -0.000012818723917
55    5.707664012900000    5.707664012900000    2.853832006400000    0.000073004513979    0.000005751848221   -0.000060101971030
63    5.707664012900000    8.561496019300000    0.000000000000000    0.001157399266958   -0.000766378478147    0.000008758157492
71    7.134580016099999    9.988412022600000    4.280748009700000    0.000011608004570    0.000022754073143    0.000103622674942
79    7.134580016099999    7.134580016099999    4.280748009700000    0.000030726194382   -0.000051729381084    0.000046491622925
87    7.134580016099999    7.134580016099999    1.426916003200000    0.000012800097466   -0.000106930732727   -0.000018671154976
95    7.134580016099999    9.988412022600000    1.426916003200000    0.000258967280388   -0.000483591109514    0.000485271215439
103    9.988412022600000    9.988412022600000    1.426916003200000    0.000099840661278    0.000365912914276   -0.000364698469639
111    9.988412022600000    7.134580016099999    1.426916003200000   -0.000006774933354    0.000097475945950    0.000052094459534
119    9.988412022600000    7.134580016099999    4.280748009700000    0.000011475355677    0.000034019351006   -0.000038294121623
127    9.988412022600000    9.988412022600000    4.280748009700000   -0.000008301369235   -0.000048603971663   -0.000101683661342
2    0.000000000000000    0.000000000000000    5.707664012900000    0.000019951787181    0.000010365632988    0.000006884336472
10    0.000000000000000    2.853832006400000    8.561496019300000    0.000727867241949   -0.000231752172112    0.000209785997868
18    2.853832006400000    0.000000000000000    8.561496019300000   -0.000996900722384    0.000013174489141    0.000331312417984
26    2.853832006400000    2.853832006400000    5.707664012900000   -0.000213388353586   -0.000013537704945    0.000008821487427
34    2.853832006400000    0.000000000000000    5.707664012900000    0.000103905797005    0.000005938112736    0.000003635883331
42    2.853832006400000    2.853832006400000    8.561496019300000   -0.001976691186428    0.000356733798981   -0.000374510884285
50    0.000000000000000    0.000000000000000    8.561496019300000    0.000670913606882    0.000005133450031    0.000201947987080
58    0.000000000000000    2.853832006400000    5.707664012900000    0.000065796077251    0.000063177198172    0.000005036592484
66    1.426916003200000    4.280748009700000    9.988412022600000    0.000091157853603    0.000264018774033   -0.000044494867325
74    1.426916003200000    1.426916003200000    9.988412022600000   -0.001107272924855   -0.000713035464287    0.000715583562851
82    1.426916003200000    1.426916003200000    7.134580016099999    0.000090895642643    0.000046804547310   -0.000262700021267
90    1.426916003200000    4.280748009700000    7.134580016099999   -0.000107289699372    0.000064693391323   -0.000064283609390
98    4.280748009700000    4.280748009700000    7.134580016099999   -0.000093616545200   -0.000051498413086    0.000056501477957
106    4.280748009700000    1.426916003200000    7.134580016099999    0.000019978731871   -0.000095278024673    0.000373095273972
114    4.280748009700000    1.426916003200000    9.988412022600000    0.001712217926979    0.000620082020760   -0.000620700418949
122    4.280748009700000    4.280748009700000    9.988412022600000    0.000024259090424   -0.000371232628822    0.000094041228294
6    5.707664012900000    0.000000000000000    5.707664012900000   -0.000006482005119    0.000011540949345    0.000009834766388
14    5.707664012900000    2.853832006400000    8.561496019300000    0.000658452510834    0.000083687715232   -0.000100836157799
22    8.561496019300000    0.000000000000000    8.561496019300000    0.000285573303699    0.000010935589671   -0.000000827014446
30    8.561496019300000    2.853832006400000    5.707664012900000    0.000048004090786   -0.000003941357136    0.000006914138794
38    8.561496019300000    0.000000000000000    5.707664012900000   -0.000105280429125    0.000009268522263    0.000005379319191
46    8.561496019300000    2.853832006400000    8.561496019300000   -0.000168599188328   -0.000010505318642   -0.000003900378942
54    5.707664012900000    0.000000000000000    8.561496019300000    0.001158025115728    0.000007738359272   -0.000766459852457
62    5.707664012900000    2.853832006400000    5.707664012900000    0.000072564929724   -0.000059826299548    0.000004976987839
70    7.134580016099999    4.280748009700000    9.988412022600000    0.000009462237358    0.000108964741230    0.000021234154701
78    7.134580016099999    1.426916003200000    9.988412022600000    0.000257968902588    0.000483095645905   -0.000484704971313
86    7.134580016099999    1.426916003200000    7.134580016099999    0.000016182661057   -0.000019088387489   -0.000105112791061
94    7.134580016099999    4.280748009700000    7.134580016099999    0.000030025839806    0.000049095600843   -0.000046472996473
102    9.988412022600000    4.280748009700000    7.134580016099999    0.000012259924915   -0.000034928321838    0.000036820769310
110    9.988412022600000    1.426916003200000    7.134580016099999   -0.000010564257536    0.000047802925110    0.000100493431091
118    9.988412022600000    1.426916003200000    9.988412022600000    0.000099967859569   -0.000363290309906    0.000363864935935
126    9.988412022600000    4.280748009700000    9.988412022600000   -0.000009141862392   -0.000101059675217   -0.000047340989113
4    0.000000000000000    5.707664012900000    5.707664012900000    0.000151260435814    0.000008016824722    0.000009804964066
12    0.000000000000000    8.561496019300000    8.561496019300000    0.000729428604245    0.000212438404560    0.000207543373108
20    2.853832006400000    5.707664012900000    8.561496019300000   -0.000214902684093    0.000007748603821   -0.000004127621651
28    2.853832006400000    8.561496019300000    5.707664012900000   -0.000214327126741   -0.000004030764103    0.000007539987564
36    2.853832006400000    5.707664012900000    5.707664012900000   -0.000157676637173    0.000004455447197    0.000004276633263
44    2.853832006400000    8.561496019300000    8.561496019300000   -0.001977965235710   -0.000373642891645   -0.000373929738998
52    0.000000000000000    5.707664012900000    8.561496019300000    0.000067230314016    0.000007346272469   -0.000077519565821
60    0.000000000000000    8.561496019300000    5.707664012900000    0.000068008899689   -0.000076560303569    0.000007167458534
68    1.426916003200000    9.988412022600000    9.988412022600000   -0.001108334865421    0.000714376568794    0.000713109970093
76    1.426916003200000    7.134580016099999    9.988412022600000    0.000088898261311   -0.000262364745140   -0.000049650669098
84    1.426916003200000    7.134580016099999    7.134580016099999   -0.000108709849883   -0.000062912702560   -0.000060036778450
92    1.426916003200000    9.988412022600000    7.134580016099999    0.000090676083346   -0.000045441091061   -0.000260464847088
100    4.280748009700000    9.988412022600000    7.134580016099999    0.000023402273655    0.000096537172794    0.000374656170607
108    4.280748009700000    7.134580016099999    7.134580016099999   -0.000095095485449    0.000051267445087    0.000057488679886
116    4.280748009700000    7.134580016099999    9.988412022600000    0.000022873282433    0.000371634960175    0.000091925263405
124    4.280748009700000    9.988412022600000    9.988412022600000    0.001712858676910   -0.000620074570179   -0.000618860125542
8    5.707664012900000    5.707664012900000    5.707664012900000    0.000147640705109    0.000009238719940    0.000008642673492
16    5.707664012900000    8.561496019300000    8.561496019300000    0.000658333301544   -0.000100657343864   -0.000105865299702
24    8.561496019300000    5.707664012900000    8.561496019300000    0.000048078596592    0.000005751848221   -0.000018201768398
32    8.561496019300000    8.561496019300000    5.707664012900000    0.000046096742153   -0.000017009675503    0.000009953975677
40    8.561496019300000    5.707664012900000    5.707664012900000   -0.000067036598921    0.000007212162018    0.000006295740604
48    8.561496019300000    8.561496019300000    8.561496019300000   -0.000170670449734   -0.000001139938831   -0.000005833804607
56    5.707664012900000    5.707664012900000    8.561496019300000    0.000072091817856    0.000005885958672    0.000043345615268
64    5.707664012900000    8.561496019300000    5.707664012900000    0.000073976814747    0.000046812929213    0.000009082257748
72    7.134580016099999    9.988412022600000    9.988412022600000    0.000260487198830   -0.000484213232994   -0.000484094023705
80    7.134580016099999    7.134580016099999    9.988412022600000    0.000012233853340   -0.000107068568468    0.000018805265427
88    7.134580016099999    7.134580016099999    7.134580016099999    0.000030592083931   -0.000051513314247   -0.000046132132411
96    7.134580016099999    9.988412022600000    7.134580016099999    0.000013619661331    0.000022925436497   -0.000104060396552
104    9.988412022600000    9.988412022600000    7.134580016099999   -0.000008450158930   -0.000048980116844    0.000103190541267
112    9.988412022600000    7.134580016099999    7.134580016099999    0.000011632834685    0.000032562762499    0.000038743019104
120    9.988412022600000    7.134580016099999    9.988412022600000   -0.000006501876669    0.000099062919617   -0.000050858019677
128    9.988412022600000    9.988412022600000    9.988412022600000    0.000100099256088    0.000363509869203    0.000364726263797
