ITEM: TIMESTEP
0
ITEM: NUMBER OF ATOMS
128
ITEM: BOX BOUNDS xy xz yz pp pp pp
0.0000000000000000e+00 1.1415328025799999e+01 0.0000000000000000e+00
0.0000000000000000e+00 1.1415328025799999e+01 0.0000000000000000e+00
0.0000000000000000e+00 1.1415328025799999e+01 0.0000000000000000e+00
ITEM: ATOMS id xu yu zu fx fy fz
1    0.040000000000000    0.000000000000000    0.000000000000000   -0.307388365268707   -0.000008750241250   -0.000009060895536
9    0.000000000000000    2.853832006400000    2.853832006400000    0.000415275659179    0.000083176419139    0.000085458159447
17    2.853832006400000    0.000000000000000    2.853832006400000    0.000614486634731    0.000011198222637    0.003603858873248
25    2.853832006400000    2.853832006400000    0.000000000000000    0.000612735748291    0.003603117540479    0.000011304393411
33    2.853832006400000    0.000000000000000    0.000000000000000    0.046780057251453    0.000008523464203    0.000008001923561
41    2.853832006400000    2.853832006400000    2.853832006400000    0.002770446240902    0.002169527113438    0.002168767154217
49    0.000000000000000    0.000000000000000    2.853832006400000   -0.004516240209341    0.000008448958397    0.002835720777512
57    0.000000000000000    2.853832006400000    0.000000000000000   -0.004517983645201    0.002836130559444    0.000007439404726
65    1.426916003200000    4.280748009700000    4.280748009700000   -0.000000990927219    0.000199630856514    0.000194132328033
73    1.426916003200000    1.426916003200000    4.280748009700000   -0.000166894955328   -0.000335931777954   -0.001321747899055
81    1.426916003200000    1.426916003200000    1.426916003200000    0.030154075473547    0.032943062484264    0.032944172620773
89    1.426916003200000    4.280748009700000    1.426916003200000   -0.000165894613019   -0.001319341361523   -0.000335752964020
97    4.280748009700000    4.280748009700000    1.426916003200000    0.000198140740395    0.000703841447830    0.000055912882090
105    4.280748009700000    1.426916003200000    1.426916003200000    0.001151602715254    0.002213492989540    0.002214144915342
113    4.280748009700000    1.426916003200000    4.280748009700000    0.000199474394321    0.000058775767684    0.000702358782291
121    4.280748009700000    4.280748009700000    4.280748009700000    0.000160291790962    0.000224456191063    0.000224992632866
5    5.707664012900000    0.000000000000000    0.000000000000000    0.004374206066132    0.000012934207916    0.000011377036572
13    5.707664012900000    2.853832006400000    2.853832006400000   -0.000289261341095   -0.000075506046414   -0.000073695555329
21    8.561496019300000    0.000000000000000    2.853832006400000    0.000124946236610    0.000012092292309   -0.003136880695820
29    8.561496019300000    2.853832006400000    0.000000000000000    0.000124551355839   -0.003137852996588    0.000012902542949
37    8.561496019300000    0.000000000000000    0.000000000000000    0.046287424862385    0.000010780990124    0.000008665025234
45    8.561496019300000    2.853832006400000    2.853832006400000    0.000490929931402   -0.000133827328682   -0.000133700668812
53    5.707664012900000    0.000000000000000    2.853832006400000    0.001286182552576    0.000010498799384   -0.000108275562525
61    5.707664012900000    2.853832006400000    0.000000000000000    0.001290403306484   -0.000109422951937    0.000007923692465
69    7.134580016099999    4.280748009700000    4.280748009700000    0.000077545642853   -0.000095196068287   -0.000095061957836
77    7.134580016099999    1.426916003200000    4.280748009700000   -0.000032916665077   -0.000250563025475   -0.000486955046654
85    7.134580016099999    1.426916003200000    1.426916003200000    0.000211566686630   -0.001038275659084   -0.001038014888763
93    7.134580016099999    4.280748009700000    1.426916003200000   -0.000033631920815   -0.000485278666019   -0.000251114368439
101    9.988412022600000    4.280748009700000    1.426916003200000   -0.000370489928173    0.001577585935593    0.000557504594326
109    9.988412022600000    1.426916003200000    1.426916003200000    0.021211644634604   -0.022954702377319   -0.022952239960432
117    9.988412022600000    1.426916003200000    4.280748009700000   -0.000374404655304    0.000553630292416    0.001574466703460
125    9.988412022600000    4.280748009700000    4.280748009700000    0.000220142304897    0.000041186809540    0.000041671097279
3    0.000000000000000    5.707664012900000    0.000000000000000   -0.001489085028879    0.000003620982170    0.000012874603271
11    0.000000000000000    8.561496019300000    2.853832006400000    0.000418515672209   -0.000101648271084    0.000081316567957
19    2.853832006400000    5.707664012900000    2.853832006400000    0.000068580731750    0.000006318092346    0.000001604668796
27    2.853832006400000    8.561496019300000    0.000000000000000    0.000609269365668   -0.003626562654972    0.000011529773474
35    2.853832006400000    5.707664012900000    0.000000000000000    0.000053279101849    0.000007212162018    0.000007558614016
43    2.853832006400000    8.561496019300000    2.853832006400000    0.002768009901047   -0.002182178199291    0.002171050757170
51    0.000000000000000    5.707664012900000    2.853832006400000   -0.000796791166067    0.000004172325134    0.000047445297241
59    0.000000000000000    8.561496019300000    0.000000000000000   -0.004515182226896   -0.002831509336829    0.000009117648005
67    1.426916003200000    9.988412022600000    4.280748009700000   -0.000166041776538    0.000338301062584   -0.001325264573097
75    1.426916003200000    7.134580016099999    4.280748009700000   -0.000002846878488   -0.000198662281036    0.000193327665329
83    1.426916003200000    7.134580016099999    1.426916003200000   -0.000167466991115    0.001322329044342   -0.000335946679115
91    1.426916003200000    9.988412022600000    1.426916003200000    0.030153250321746   -0.032941501587629    0.032944604754448
99    4.280748009700000    9.988412022600000    1.426916003200000    0.001152746379375   -0.002211607992649    0.002215746790171
107    4.280748009700000    7.134580016099999    1.426916003200000    0.000195475295186   -0.000704150646925    0.000059783458710
115    4.280748009700000    7.134580016099999    4.280748009700000    0.000158861279488   -0.000225126743317    0.000222004950047
123    4.280748009700000    9.988412022600000    4.280748009700000    0.000198803842068   -0.000057600438595    0.000700995326042
7    5.707664012900000    5.707664012900000    0.000000000000000    0.000183209776878    0.000009611248970    0.000014126300812
15    5.707664012900000    8.561496019300000    2.853832006400000   -0.000286966562271    0.000051848590374   -0.000072378665209
23    8.561496019300000    5.707664012900000    2.853832006400000    0.000150188803673    0.000005900859833   -0.000090306624770
31    8.561496019300000    8.561496019300000    0.000000000000000    0.000127777457237    0.003116466104984    0.000012744218111
39    8.561496019300000    5.707664012900000    0.000000000000000   -0.000050537288189    0.000002637505531    0.000007713097148
47    8.561496019300000    8.561496019300000    2.853832006400000    0.000487770885229    0.000119503587484   -0.000131808221340
55    5.707664012900000    5.707664012900000    2.853832006400000    0.000241912901402    0.000006884336472   -0.000035710632801
63    5.707664012900000    8.561496019300000    0.000000000000000    0.001288115978241    0.000095971641713    0.000009272247553
71    7.134580016099999    9.988412022600000    4.280748009700000   -0.000033378601074    0.000251635909081   -0.000487744808197
79    7.134580016099999    7.134580016099999    4.280748009700000    0.000078275799751    0.000095661729574   -0.000098407268524
87    7.134580016099999    7.134580016099999    1.426916003200000   -0.000030875205994    0.000483855605125   -0.000247567892075
95    7.134580016099999    9.988412022600000    1.426916003200000    0.000214546918869    0.001039398834109   -0.001035779714584
103    9.988412022600000    9.988412022600000    1.426916003200000    0.021207414567471    0.022955387830734   -0.022954039275646
111    9.988412022600000    7.134580016099999    1.426916003200000   -0.000370709924027   -0.001580134034157    0.000558406114578
119    9.988412022600000    7.134580016099999    4.280748009700000    0.000218968940317   -0.000041872262955    0.000039540231228
127    9.988412022600000    9.988412022600000    4.280748009700000   -0.000371567235561   -0.000556239567231    0.001575158908963
2    0.000000000000000    0.000000000000000    5.707664012900000   -0.001490721246228    0.000009983481505    0.000005424022675
10    0.000000000000000    2.853832006400000    8.561496019300000    0.000415674876422    0.000079856254160   -0.000102221965790
18    2.853832006400000    0.000000000000000    8.561496019300000    0.000608470290899    0.000013301149011   -0.003623403608799
26    2.853832006400000    2.853832006400000    5.707664012900000    0.000068321824074    0.000000754371285    0.000008285045624
34    2.853832006400000    0.000000000000000    5.707664012900000    0.000054366886616    0.000006392598152    0.000004768371582
42    2.853832006400000    2.853832006400000    8.561496019300000    0.002771422266960    0.002168692648411   -0.002183295786381
50    0.000000000000000    0.000000000000000    8.561496019300000   -0.004515070468187    0.000007167458534   -0.002832978963852
58    0.000000000000000    2.853832006400000    5.707664012900000   -0.000798113644123    0.000047914683819    0.000003591179848
66    1.426916003200000    4.280748009700000    9.988412022600000   -0.000166498124599   -0.001319985836744    0.000335596501827
74    1.426916003200000    1.426916003200000    9.988412022600000    0.030154395848513    0.032943889498711   -0.032944001257420
82    1.426916003200000    1.426916003200000    7.134580016099999   -0.000167200574651   -0.000335745513439    0.001322835683823
90    1.426916003200000    4.280748009700000    7.134580016099999   -0.000000490248567    0.000198457390070   -0.000196203589439
98    4.280748009700000    4.280748009700000    7.134580016099999    0.000161916017532    0.000225603580475   -0.000221438705921
106    4.280748009700000    1.426916003200000    7.134580016099999    0.000197267159820    0.000058576464653   -0.000704720616341
114    4.280748009700000    1.426916003200000    9.988412022600000    0.001152865588665    0.002213694155216   -0.002212263643742
122    4.280748009700000    4.280748009700000    9.988412022600000    0.000198692083359    0.000704854726791   -0.000058367848396
6    5.707664012900000    0.000000000000000    5.707664012900000    0.000182971358299    0.000011324882507    0.000009000301361
14    5.707664012900000    2.853832006400000    8.561496019300000   -0.000287115573883   -0.000072555616498    0.000053159892559
22    8.561496019300000    0.000000000000000    8.561496019300000    0.000126615166664    0.000011524185538    0.003118090331554
30    8.561496019300000    2.853832006400000    5.707664012900000    0.000150643289089   -0.000091122463346    0.000007152557373
38    8.561496019300000    0.000000000000000    5.707664012900000   -0.000049460679293    0.000009141862392    0.000003471970558
46    8.561496019300000    2.853832006400000    8.561496019300000    0.000487934798002   -0.000131219625473    0.000117707997561
54    5.707664012900000    0.000000000000000    8.561496019300000    0.001289773732424    0.000007064081728    0.000094667077065
62    5.707664012900000    2.853832006400000    5.707664012900000    0.000243823975325   -0.000035079196095    0.000006034970284
70    7.134580016099999    4.280748009700000    9.988412022600000   -0.000034749507904   -0.000481940805912    0.000251963734627
78    7.134580016099999    1.426916003200000    9.988412022600000    0.000212803483009   -0.001038953661919    0.001037850975990
86    7.134580016099999    1.426916003200000    7.134580016099999   -0.000031486153603   -0.000247702002525    0.000486053526402
94    7.134580016099999    4.280748009700000    7.134580016099999    0.000076338648796   -0.000095717608929    0.000097319483757
102    9.988412022600000    4.280748009700000    7.134580016099999    0.000220646339585    0.000041648745537   -0.000041380524635
110    9.988412022600000    1.426916003200000    7.134580016099999   -0.000371008587535    0.000552803277969   -0.001576393842697
118    9.988412022600000    1.426916003200000    9.988412022600000    0.021205559372902   -0.022951275110245    0.022954214364290
126    9.988412022600000    4.280748009700000    9.988412022600000   -0.000372111797333    0.001573957502842   -0.000555582344532
4    0.000000000000000    5.707664012900000    5.707664012900000   -0.000307170441374    0.000008597970009    0.000009506940842
12    0.000000000000000    8.561496019300000    8.561496019300000    0.000416377908550   -0.000097788870335   -0.000100962817669
20    2.853832006400000    5.707664012900000    8.561496019300000    0.000070221722126    0.000009149312973   -0.000021949410439
28    2.853832006400000    8.561496019300000    5.707664012900000    0.000067705288529   -0.000021979212761    0.000006109476089
36    2.853832006400000    5.707664012900000    5.707664012900000    0.000494852662086    0.000005692243576    0.000006049871445
44    2.853832006400000    8.561496019300000    8.561496019300000    0.002770468592644   -0.002185605466366   -0.002184797078371
52    0.000000000000000    5.707664012900000    8.561496019300000   -0.000798191875219    0.000004500150681   -0.000063091516495
60    0.000000000000000    8.561496019300000    5.707664012900000   -0.000797066837549   -0.000059826299548    0.000004403293133
68    1.426916003200000    9.988412022600000    9.988412022600000    0.030156679451466   -0.032943941652775   -0.032942309975624
76    1.426916003200000    7.134580016099999    9.988412022600000   -0.000165703531820    0.001321353018284    0.000338226556778
84    1.426916003200000    7.134580016099999    7.134580016099999   -0.000002528947334   -0.000195235013962   -0.000195745378733
92    1.426916003200000    9.988412022600000    7.134580016099999   -0.000164686847711    0.000336650758982    0.001323767006397
100    4.280748009700000    9.988412022600000    7.134580016099999    0.000196859240532   -0.000057525932789   -0.000700615346432
108    4.280748009700000    7.134580016099999    7.134580016099999    0.000158663839102   -0.000225678086281   -0.000220537185669
116    4.280748009700000    7.134580016099999    9.988412022600000    0.000196970999241   -0.000705599784851   -0.000059679150581
124    4.280748009700000    9.988412022600000    9.988412022600000    0.001151368021965   -0.002214968204498   -0.002213016152382
8    5.707664012900000    5.707664012900000    5.707664012900000   -0.000186905264854    0.000008016824722    0.000008925795555
16    5.707664012900000    8.561496019300000    8.561496019300000   -0.000288218259811    0.000054180622101    0.000050127506256
24    8.561496019300000    5.707664012900000    8.561496019300000    0.000151731073856    0.000004768371582    0.000069499015808
32    8.561496019300000    8.561496019300000    5.707664012900000    0.000150129199028    0.000071316957474    0.000008583068848
40    8.561496019300000    5.707664012900000    5.707664012900000    0.000555906444788    0.000005446374416    0.000005848705769
48    8.561496019300000    8.561496019300000    8.561496019300000    0.000490598380566    0.000120099633932    0.000116432085633
56    5.707664012900000    5.707664012900000    8.561496019300000    0.000240623950958    0.000006459653378    0.000017849728465
64    5.707664012900000    8.561496019300000    5.707664012900000    0.000244870781898    0.000024088891223    0.000007465481758
72    7.134580016099999    9.988412022600000    9.988412022600000    0.000213071703911    0.001037508249283    0.001036152243614
80    7.134580016099999    7.134580016099999    9.988412022600000   -0.000031828880310    0.000485155731440    0.000247865915298
88    7.134580016099999    7.134580016099999    7.134580016099999    0.000079289078712    0.000094190239906    0.000098474323750
96    7.134580016099999    9.988412022600000    7.134580016099999   -0.000032603740692    0.000251183286309    0.000488735735416
104    9.988412022600000    9.988412022600000    7.134580016099999   -0.000372739799786   -0.000557154417038   -0.001573085784912
112    9.988412022600000    7.134580016099999    7.134580016099999    0.000218548666453   -0.000041436403990   -0.000041306018829
120    9.988412022600000    7.134580016099999    9.988412022600000   -0.000372795329895   -0.001576349139214   -0.000554824888241
128    9.988412022600000    9.988412022600000    9.988412022600000    0.021206531673670    0.022953731939197    0.022953808307648
