ITEM: TIMESTEP
0
ITEM: NUMBER OF ATOMS
128
ITEM: BOX BOUNDS xy xz yz pp pp pp
0.0000000000000000e+00 1.1415328025799999e+01 0.0000000000000000e+00
0.0000000000000000e+00 1.1415328025799999e+01 0.0000000000000000e+00
0.0000000000000000e+00 1.1415328025799999e+01 0.0000000000000000e+00
ITEM: ATOMS id xu yu zu fx fy fz
1    0.000000000000000    0.000000000000000    0.000000000000000    0.000055620097555    0.000074151575973    0.000074488918472
9    0.000000000000000    2.853832006400000    2.853832006400000    0.004389424342662    0.006698622368276    0.006700500845909
17    2.853832006400000    0.000000000000000    2.853832006400000   -0.000079868361354   -0.000243213959038    0.000109947286546
25    2.853832006400000    2.853832006400000    0.000000000000000   -0.000077052041888    0.000108746811748   -0.000242721289396
33    2.853832006400000    0.000000000000000    0.000000000000000   -0.000117883086205    0.000033564865589    0.000032462179661
41    2.853832006400000    2.853832006400000    2.853832006400000    0.002786383032799   -0.001522317528725   -0.001521870493889
49    0.000000000000000    0.000000000000000    2.853832006400000    0.000048972666264    0.000441491603851   -0.000111900269985
57    0.000000000000000    2.853832006400000    0.000000000000000    0.000045973807573   -0.000113021582365    0.000441346317530
65    1.436916003200000    4.280748009700000    4.280748009700000   -0.041404932737350   -0.000005088746548   -0.000003419816494
73    1.426916003200000    1.426916003200000    4.280748009700000   -0.000011449417798   -0.000177562236786   -0.000650972127914
81    1.426916003200000    1.426916003200000    1.426916003200000   -0.002734068082646    0.000499911606312    0.000498116016388
89    1.426916003200000    4.280748009700000    1.426916003200000   -0.000012182601495   -0.000652305781841   -0.000178143382072
97    4.280748009700000    4.280748009700000    1.426916003200000    0.000986583530903   -0.000182330608368   -0.001280538737774
105    4.280748009700000    1.426916003200000    1.426916003200000    0.001805329695344    0.000017538666725    0.000016910955310
113    4.280748009700000    1.426916003200000    4.280748009700000    0.000987917184830   -0.001277489587665   -0.000181831419468
121    4.280748009700000    4.280748009700000    4.280748009700000    0.005156874656677   -0.000001996755600   -0.000000834465027
5    5.707664012900000    0.000000000000000    0.000000000000000    0.000004589557648    0.000005871057510    0.000004380941391
13    5.707664012900000    2.853832006400000    2.853832006400000   -0.000054359436035    0.000320754945278    0.000321641564369
21    8.561496019300000    0.000000000000000    2.853832006400000    0.000004954636097    0.000170381739736    0.000007156282663
29    8.561496019300000    2.853832006400000    0.000000000000000    0.000006385147572    0.000006800517440    0.000171553343534
37    8.561496019300000    0.000000000000000    0.000000000000000    0.000011172145605    0.000052817165852    0.000051140785217
45    8.561496019300000    2.853832006400000    2.853832006400000    0.000149220228195   -0.000421598553658   -0.000424962490797
53    5.707664012900000    0.000000000000000    2.853832006400000    0.000027000904083   -0.000108614563942    0.000055089592934
61    5.707664012900000    2.853832006400000    0.000000000000000    0.000025525689125    0.000057148747146   -0.000108044594526
69    7.134580016099999    4.280748009700000    4.280748009700000   -0.000110678374767   -0.000003851950169   -0.000002749264240
77    7.134580016099999    1.426916003200000    4.280748009700000   -0.000004217028618   -0.000010222196579    0.000006809830666
85    7.134580016099999    1.426916003200000    1.426916003200000    0.000054329633713   -0.000027701258659   -0.000029712915421
93    7.134580016099999    4.280748009700000    1.426916003200000   -0.000003069639206    0.000005459412932   -0.000009462237358
101    9.988412022600000    4.280748009700000    1.426916003200000    0.001082320464775   -0.000471875071526    0.001424092799425
109    9.988412022600000    1.426916003200000    1.426916003200000    0.000868741364684   -0.000170350074768   -0.000167522579432
117    9.988412022600000    1.426916003200000    4.280748009700000    0.001078830449842    0.001423001289368   -0.000473282940220
125    9.988412022600000    4.280748009700000    4.280748009700000    0.003420837223530   -0.000004000961781   -0.000001490116119
3    0.000000000000000    5.707664012900000    0.000000000000000   -0.000094456619991    0.000120684504509    0.000333011150360
11    0.000000000000000    8.561496019300000    2.853832006400000   -0.000094522358268   -0.000333800911903   -0.000114575028419
19    2.853832006400000    5.707664012900000    2.853832006400000    0.005666866898537    0.006791025400162   -0.006787965074182
27    2.853832006400000    8.561496019300000    0.000000000000000    0.000019468367100    0.000015683472157   -0.000019645318389
35    2.853832006400000    5.707664012900000    0.000000000000000    0.000055983662605   -0.000023499131203   -0.000354059040546
43    2.853832006400000    8.561496019300000    2.853832006400000    0.000055231153965    0.000352602452040    0.000021990388632
51    0.000000000000000    5.707664012900000    2.853832006400000   -0.002031564712524    0.000210165977478   -0.000208478420973
59    0.000000000000000    8.561496019300000    0.000000000000000   -0.000065032392740    0.000031605362892   -0.000032940879464
67    1.426916003200000    9.988412022600000    4.280748009700000   -0.000068586785346    0.000000402331352   -0.000003263354301
75    1.426916003200000    7.134580016099999    4.280748009700000   -0.000013518583728    0.000178061425686    0.000652581453323
83    1.426916003200000    7.134580016099999    1.426916003200000   -0.001267096493393    0.000105187296867   -0.000104755163193
91    1.426916003200000    9.988412022600000    1.426916003200000    0.000056631040934    0.000011857599020    0.000002354383469
99    4.280748009700000    9.988412022600000    1.426916003200000   -0.000005029141903    0.000034675002098   -0.000004850327969
107    4.280748009700000    7.134580016099999    1.426916003200000    0.000909077003598   -0.000110656023026    0.000113587826490
115    4.280748009700000    7.134580016099999    4.280748009700000    0.000986509025097    0.001277863979340    0.000180006027222
123    4.280748009700000    9.988412022600000    4.280748009700000   -0.000030711293221    0.000002004206181   -0.000002741813660
7    5.707664012900000    5.707664012900000    0.000000000000000    0.000028654932976    0.000027164816856   -0.000149071216583
15    5.707664012900000    8.561496019300000    2.853832006400000    0.000029087066650    0.000146485865116   -0.000020690262318
23    8.561496019300000    5.707664012900000    2.853832006400000    0.000069640576839    0.000417768955231   -0.000416215509176
31    8.561496019300000    8.561496019300000    0.000000000000000   -0.000001534819603   -0.000045038759708    0.000041592866182
39    8.561496019300000    5.707664012900000    0.000000000000000   -0.000035651028156    0.000056125223637    0.000083617786004
47    8.561496019300000    8.561496019300000    2.853832006400000   -0.000036548823118   -0.000083060935140   -0.000055644661188
55    5.707664012900000    5.707664012900000    2.853832006400000    0.000087339431047   -0.000366546213627    0.000368043780327
63    5.707664012900000    8.561496019300000    0.000000000000000    0.000029113143682    0.000034002503526   -0.000037837773561
71    7.134580016099999    9.988412022600000    4.280748009700000   -0.000038906931877    0.000001206994057   -0.000005066394806
79    7.134580016099999    7.134580016099999    4.280748009700000   -0.000002160668373    0.000013109296560   -0.000014320015907
87    7.134580016099999    7.134580016099999    1.426916003200000    0.000066101551056   -0.000014305114746    0.000018939375877
95    7.134580016099999    9.988412022600000    1.426916003200000   -0.000044614076614   -0.000019107013941    0.000004380941391
103    9.988412022600000    9.988412022600000    1.426916003200000   -0.000007047502095    0.000016435980797    0.000003710389137
111    9.988412022600000    7.134580016099999    1.426916003200000    0.001910379272886   -0.000192593783140    0.000196263194084
119    9.988412022600000    7.134580016099999    4.280748009700000    0.001083197304979   -0.001420944929123    0.000464005395770
127    9.988412022600000    9.988412022600000    4.280748009700000   -0.000031538384064   -0.000001341174539   -0.000003777444363
2    0.000000000000000    0.000000000000000    5.707664012900000   -0.000095195675385    0.000330998911522    0.000119745731354
10    0.000000000000000    2.853832006400000    8.561496019300000   -0.000095348717878   -0.000118469819427   -0.000335581600666
18    2.853832006400000    0.000000000000000    8.561496019300000    0.000018663704395   -0.000018169172108    0.000016786158085
26    2.853832006400000    2.853832006400000    5.707664012900000    0.005668614059687   -0.006789833307266    0.006791859865189
34    2.853832006400000    0.000000000000000    5.707664012900000    0.000056155025959   -0.000354833900928   -0.000023007392883
42    2.853832006400000    2.853832006400000    8.561496019300000    0.000056199729443    0.000020958483219    0.000350579619408
50    0.000000000000000    0.000000000000000    8.561496019300000   -0.000066980719566   -0.000033013522625    0.000030033290386
58    0.000000000000000    2.853832006400000    5.707664012900000   -0.002043165266514   -0.000202849507332    0.000204861164093
66    1.426916003200000    4.280748009700000    9.988412022600000   -0.000069051980972    0.000001698732376   -0.000001169741154
74    1.426916003200000    1.426916003200000    9.988412022600000    0.000055078897276    0.000002667307854    0.000012807548046
82    1.426916003200000    1.426916003200000    7.134580016099999   -0.001267122919671   -0.000103086233139    0.000102512538433
90    1.426916003200000    4.280748009700000    7.134580016099999   -0.000011530879419    0.000654965639114    0.000180758535862
98    4.280748009700000    4.280748009700000    7.134580016099999    0.000989809632301    0.000182248651981    0.001282583922148
106    4.280748009700000    1.426916003200000    7.134580016099999    0.000910673290491    0.000115513801575   -0.000114142894745
114    4.280748009700000    1.426916003200000    9.988412022600000   -0.000002086162567   -0.000007210299373    0.000034630298615
122    4.280748009700000    4.280748009700000    9.988412022600000   -0.000029668211937    0.000000923871994    0.000000119209290
6    5.707664012900000    0.000000000000000    5.707664012900000    0.000028267502785   -0.000150941312313    0.000029027462006
14    5.707664012900000    2.853832006400000    8.561496019300000    0.000028878450394   -0.000021174550056    0.000144615769386
22    8.561496019300000    0.000000000000000    8.561496019300000   -0.000001244246960    0.000040667131543   -0.000046111643314
30    8.561496019300000    2.853832006400000    5.707664012900000    0.000070109963417   -0.000415828078985    0.000421255826950
38    8.561496019300000    0.000000000000000    5.707664012900000   -0.000033929944038    0.000080965459347    0.000060543417931
46    8.561496019300000    2.853832006400000    8.561496019300000   -0.000035107135773   -0.000057153403759   -0.000084869563580
54    5.707664012900000    0.000000000000000    8.561496019300000    0.000031396746635   -0.000038667581975    0.000033449381590
62    5.707664012900000    2.853832006400000    5.707664012900000    0.000088311731815    0.000370566733181   -0.000365972518921
70    7.134580016099999    4.280748009700000    9.988412022600000   -0.000041790306568   -0.000001803040504    0.000000052154064
78    7.134580016099999    1.426916003200000    9.988412022600000   -0.000045850872993    0.000003159046173   -0.000019922852516
86    7.134580016099999    1.426916003200000    7.134580016099999    0.000064060091972    0.000019889324903   -0.000013336539268
94    7.134580016099999    4.280748009700000    7.134580016099999   -0.000006809830666   -0.000010928139091    0.000016488134861
102    9.988412022600000    4.280748009700000    7.134580016099999    0.001084174728021    0.000466257333755   -0.001420766115189
110    9.988412022600000    1.426916003200000    7.134580016099999    0.001917786779813    0.000192701816559   -0.000191912055016
118    9.988412022600000    1.426916003200000    9.988412022600000   -0.000008858401088    0.000006556510925    0.000016267411411
126    9.988412022600000    4.280748009700000    9.988412022600000   -0.000030823051929   -0.000002920627594   -0.000000409781933
4    0.000000000000000    5.707664012900000    5.707664012900000    0.004388128407300   -0.006697416305542   -0.006695657968521
12    0.000000000000000    8.561496019300000    8.561496019300000    0.000054235577409   -0.000078372657299   -0.000081047415733
20    2.853832006400000    5.707664012900000    8.561496019300000   -0.000077713280916   -0.000106394290924    0.000242352485657
28    2.853832006400000    8.561496019300000    5.707664012900000   -0.000077033415437    0.000239819288254   -0.000105857849121
36    2.853832006400000    5.707664012900000    5.707664012900000    0.002763643860817    0.001533836126328    0.001531675457954
44    2.853832006400000    8.561496019300000    8.561496019300000   -0.000117376446724   -0.000034108757973   -0.000035598874092
52    0.000000000000000    5.707664012900000    8.561496019300000    0.000046227127314    0.000117212533951   -0.000444695353508
60    0.000000000000000    8.561496019300000    5.707664012900000    0.000048387795687   -0.000441880896688    0.000116273760796
68    1.426916003200000    9.988412022600000    9.988412022600000    0.000056091696024   -0.000002413988113    0.000000029802322
76    1.426916003200000    7.134580016099999    9.988412022600000    0.000057593646488   -0.000001259148121   -0.000014930963516
84    1.426916003200000    7.134580016099999    7.134580016099999   -0.002731865271926   -0.000497549772263   -0.000496711581945
92    1.426916003200000    9.988412022600000    7.134580016099999    0.000058819663536   -0.000013977289200    0.000001192092896
100    4.280748009700000    9.988412022600000    7.134580016099999   -0.000004820525646   -0.000034935772419    0.000010877847672
108    4.280748009700000    7.134580016099999    7.134580016099999    0.001813318580389   -0.000024024397135   -0.000016763806343
116    4.280748009700000    7.134580016099999    9.988412022600000   -0.000004574656487    0.000006631016731   -0.000038281083107
124    4.280748009700000    9.988412022600000    9.988412022600000    0.000020466744900   -0.000002697110176   -0.000001519918442
8    5.707664012900000    5.707664012900000    5.707664012900000   -0.000050634145737   -0.000316232442856   -0.000315353274345
16    5.707664012900000    8.561496019300000    8.561496019300000    0.000004768371582   -0.000006921589375   -0.000010885298252
24    8.561496019300000    5.707664012900000    8.561496019300000    0.000006310641766   -0.000004917383194   -0.000179506838322
32    8.561496019300000    8.561496019300000    5.707664012900000    0.000003129243851   -0.000173278152943   -0.000001490116119
40    8.561496019300000    5.707664012900000    5.707664012900000    0.000148501247168    0.000424236059189    0.000427052378654
48    8.561496019300000    8.561496019300000    8.561496019300000    0.000009670853615   -0.000052433460951   -0.000056479126215
56    5.707664012900000    5.707664012900000    8.561496019300000    0.000025808811188   -0.000053986907005    0.000102290883660
64    5.707664012900000    8.561496019300000    5.707664012900000    0.000026479363441    0.000105451792479   -0.000053204596043
72    7.134580016099999    9.988412022600000    9.988412022600000   -0.000071078538895   -0.000002577900887   -0.000000879168510
80    7.134580016099999    7.134580016099999    9.988412022600000   -0.000043570995331    0.000002536922693    0.000015527009964
88    7.134580016099999    7.134580016099999    7.134580016099999    0.000056743621826    0.000030696392059    0.000035727396607
96    7.134580016099999    9.988412022600000    7.134580016099999   -0.000043660402298    0.000018591061234    0.000003375113010
104    9.988412022600000    9.988412022600000    7.134580016099999   -0.000005749850516   -0.000019937753677    0.000000700354576
112    9.988412022600000    7.134580016099999    7.134580016099999    0.000869142066222    0.000172231346369    0.000175178050995
120    9.988412022600000    7.134580016099999    9.988412022600000   -0.000007286618256   -0.000002667307854   -0.000019543898816
128    9.988412022600000    9.988412022600000    9.988412022600000    0.000022293159418   -0.000002744385256   -0.000000234277564
