ITEM: TIMESTEP
0
ITEM: NUMBER OF ATOMS
128
ITEM: BOX BOUNDS xy xz yz pp pp pp
0.0000000000000000e+00 1.1415328025799999e+01 0.0000000000000000e+00
0.0000000000000000e+00 1.1415328025799999e+01 0.0000000000000000e+00
0.0000000000000000e+00 1.1415328025799999e+01 0.0000000000000000e+00
ITEM: ATOMS id xu yu zu fx fy fz
1    0.010000000000000    0.000000000000000    0.000000000000000   -0.069975435733795    0.000002831038728   -0.000001548120053
9    0.000000000000000    2.853832006400000    2.853832006400000    0.000171560735907    0.000060551799834    0.000060689635575
17    2.853832006400000    0.000000000000000    2.853832006400000    0.000086113810539    0.000011771917343    0.000888712704182
25    2.853832006400000    2.853832006400000    0.000000000000000    0.000087281689048    0.000887727364898    0.000011308118701
33    2.853832006400000    0.000000000000000    0.000000000000000    0.012146152555943    0.000009223818779    0.000008881092072
41    2.853832006400000    2.853832006400000    2.853832006400000    0.000810034573078    0.000274144113064    0.000273108482361
49    0.000000000000000    0.000000000000000    2.853832006400000   -0.000710658729076    0.000008337199688    0.000418849289417
57    0.000000000000000    2.853832006400000    0.000000000000000   -0.000712271779776    0.000417146831751    0.000009588897228
65    1.426916003200000    4.280748009700000    4.280748009700000    0.000031143426895    0.000034116208553    0.000028081238270
73    1.426916003200000    1.426916003200000    4.280748009700000   -0.000087384709332   -0.000128373503685   -0.000320866703987
81    1.426916003200000    1.426916003200000    1.426916003200000    0.005642181728035    0.007334271445870    0.007336691021919
89    1.426916003200000    4.280748009700000    1.426916003200000   -0.000089240609668   -0.000320091843605   -0.000129237771034
97    4.280748009700000    4.280748009700000    1.426916003200000    0.000025242567062    0.000157937407494    0.000037558376789
105    4.280748009700000    1.426916003200000    1.426916003200000    0.000089183449745    0.000319927930832    0.000319410115480
113    4.280748009700000    1.426916003200000    4.280748009700000    0.000025451183319    0.000036347657442    0.000159002840519
121    4.280748009700000    4.280748009700000    4.280748009700000    0.000006452202797    0.000021651387215    0.000020593404770
5    5.707664012900000    0.000000000000000    0.000000000000000    0.001360997557640    0.000013485550880    0.000010304152966
13    5.707664012900000    2.853832006400000    2.853832006400000   -0.000051856040955    0.000000732019544   -0.000001082196832
21    8.561496019300000    0.000000000000000    2.853832006400000   -0.000053435564041    0.000011408701539   -0.000837957486510
29    8.561496019300000    2.853832006400000    0.000000000000000   -0.000052988529205   -0.000837344676256    0.000012764707208
37    8.561496019300000    0.000000000000000    0.000000000000000    0.013376988470554    0.000011101365089    0.000009618699551
45    8.561496019300000    2.853832006400000    2.853832006400000    0.000507444143295   -0.000016469508410   -0.000019393861294
53    5.707664012900000    0.000000000000000    2.853832006400000    0.000321451574564    0.000007551629096   -0.000014629215002
61    5.707664012900000    2.853832006400000    0.000000000000000    0.000322476029396   -0.000015420839190    0.000007528811693
69    7.134580016099999    4.280748009700000    4.280748009700000    0.000003144145012   -0.000012449920177   -0.000011913478374
77    7.134580016099999    1.426916003200000    4.280748009700000    0.000012412667274   -0.000061407685280   -0.000156477093697
85    7.134580016099999    1.426916003200000    1.426916003200000   -0.000004380941391   -0.000206690281630   -0.000204697251320
93    7.134580016099999    4.280748009700000    1.426916003200000    0.000012844800949   -0.000154664739966   -0.000059708952904
101    9.988412022600000    4.280748009700000    1.426916003200000   -0.000066888162110    0.000361636281013    0.000096656382084
109    9.988412022600000    1.426916003200000    1.426916003200000    0.004412724170834   -0.005776181817055   -0.005773045122623
117    9.988412022600000    1.426916003200000    4.280748009700000   -0.000070645692176    0.000096723437309    0.000359587138519
125    9.988412022600000    4.280748009700000    4.280748009700000    0.000043436884880    0.000000730156898    0.000000737607479
3    0.000000000000000    5.707664012900000    0.000000000000000   -0.000512144528329    0.000004336237907    0.000012010335922
11    0.000000000000000    8.561496019300000    2.853832006400000    0.000172622967511   -0.000079415738583    0.000059083104134
19    2.853832006400000    5.707664012900000    2.853832006400000    0.000028025358915    0.000007420778275    0.000008166767657
27    2.853832006400000    8.561496019300000    0.000000000000000    0.000083385035396   -0.000910319387913    0.000013155862689
35    2.853832006400000    5.707664012900000    0.000000000000000   -0.000002019107342    0.000005215406418    0.000006452202797
43    2.853832006400000    8.561496019300000    2.853832006400000    0.000813283026218   -0.000285487622023    0.000271279364824
51    0.000000000000000    5.707664012900000    2.853832006400000   -0.000212088227272    0.000004172325134   -0.000005576759577
59    0.000000000000000    8.561496019300000    0.000000000000000   -0.000710625201464   -0.000417709350586    0.000008735805750
67    1.426916003200000    9.988412022600000    4.280748009700000   -0.000086219981313    0.000131592154503   -0.000326618552208
75    1.426916003200000    7.134580016099999    4.280748009700000    0.000030353083275   -0.000034794211388    0.000030800700188
83    1.426916003200000    7.134580016099999    1.426916003200000   -0.000088275162852    0.000322818756104   -0.000128567218781
91    1.426916003200000    9.988412022600000    1.426916003200000    0.005637266673148   -0.007336888462305    0.007342949509621
99    4.280748009700000    9.988412022600000    1.426916003200000    0.000088497996330   -0.000317372381687    0.000320378690958
107    4.280748009700000    7.134580016099999    1.426916003200000    0.000021800398827   -0.000158868730068    0.000039171427488
115    4.280748009700000    7.134580016099999    4.280748009700000    0.000006653368473   -0.000021740794182    0.000019520521164
123    4.280748009700000    9.988412022600000    4.280748009700000    0.000023402273655   -0.000036723911762    0.000155836343765
7    5.707664012900000    5.707664012900000    0.000000000000000    0.000062018632889    0.000010028481483    0.000012189149857
15    5.707664012900000    8.561496019300000    2.853832006400000   -0.000050991773605   -0.000021435320377    0.000000000000000
23    8.561496019300000    5.707664012900000    2.853832006400000    0.000020548701286    0.000005185604095   -0.000024218112230
31    8.561496019300000    8.561496019300000    0.000000000000000   -0.000052444636822    0.000816367566586    0.000013090670109
39    8.561496019300000    5.707664012900000    0.000000000000000   -0.000005617737770    0.000002846121788    0.000008784139936
47    8.561496019300000    8.561496019300000    2.853832006400000    0.000508762896061    0.000002760440111   -0.000016592442989
55    5.707664012900000    5.707664012900000    2.853832006400000    0.000067051500082    0.000007256865501   -0.000008234754205
63    5.707664012900000    8.561496019300000    0.000000000000000    0.000321004539728    0.000001003334546    0.000007789582014
71    7.134580016099999    9.988412022600000    4.280748009700000    0.000014632940292    0.000061944127083   -0.000156939029694
79    7.134580016099999    7.134580016099999    4.280748009700000    0.000003680586815    0.000012598931789   -0.000013321638107
87    7.134580016099999    7.134580016099999    1.426916003200000    0.000015690922737    0.000155329704285   -0.000059843063354
95    7.134580016099999    9.988412022600000    1.426916003200000   -0.000004753470421    0.000205865129828   -0.000203698873520
103    9.988412022600000    9.988412022600000    1.426916003200000    0.004404567182064    0.005778118968010   -0.005777515470982
111    9.988412022600000    7.134580016099999    1.426916003200000   -0.000068951441790   -0.000364448875189    0.000098206102848
119    9.988412022600000    7.134580016099999    4.280748009700000    0.000041333903937   -0.000001445412636   -0.000001257285476
127    9.988412022600000    9.988412022600000    4.280748009700000   -0.000069835499744   -0.000099116645288    0.000359831377864
2    0.000000000000000    0.000000000000000    5.707664012900000   -0.000513096107170    0.000012124190107    0.000004589557648
10    0.000000000000000    2.853832006400000    8.561496019300000    0.000172033731360    0.000058264471591   -0.000080801546574
18    2.853832006400000    0.000000000000000    8.561496019300000    0.000084534287453    0.000015390105546   -0.000908128917217
26    2.853832006400000    2.853832006400000    5.707664012900000    0.000027660280466    0.000007262453437    0.000006973743439
34    2.853832006400000    0.000000000000000    5.707664012900000   -0.000002421438694    0.000005789101124    0.000004529953003
42    2.853832006400000    2.853832006400000    8.561496019300000    0.000811241567135    0.000271201133728   -0.000286668539047
50    0.000000000000000    0.000000000000000    8.561496019300000   -0.000712893903255    0.000008441507816   -0.000418767333031
58    0.000000000000000    2.853832006400000    5.707664012900000   -0.000213898718357   -0.000006455928087    0.000003829598427
66    1.426916003200000    4.280748009700000    9.988412022600000   -0.000087931752205   -0.000320963561535    0.000130232423544
74    1.426916003200000    1.426916003200000    9.988412022600000    0.005639853887260    0.007336765527725   -0.007337071001530
82    1.426916003200000    1.426916003200000    7.134580016099999   -0.000087763866759   -0.000127229839563    0.000321775674820
90    1.426916003200000    4.280748009700000    7.134580016099999    0.000033550539229    0.000031556934118   -0.000030614435673
98    4.280748009700000    4.280748009700000    7.134580016099999    0.000007860362530    0.000023245811462   -0.000018749386072
106    4.280748009700000    1.426916003200000    7.134580016099999    0.000022320076823    0.000036761164665   -0.000157922506332
114    4.280748009700000    1.426916003200000    9.988412022600000    0.000089392066002    0.000319713726640   -0.000320971012115
122    4.280748009700000    4.280748009700000    9.988412022600000    0.000026270747185    0.000156491994858   -0.000037685036659
6    5.707664012900000    0.000000000000000    5.707664012900000    0.000064402818680    0.000010304152966    0.000009506940842
14    5.707664012900000    2.853832006400000    8.561496019300000   -0.000052541494370   -0.000000597909093   -0.000019535422325
22    8.561496019300000    0.000000000000000    8.561496019300000   -0.000052958726883    0.000011393800378    0.000816106796265
30    8.561496019300000    2.853832006400000    5.707664012900000    0.000020928680897   -0.000022001564503    0.000007927417755
38    8.561496019300000    0.000000000000000    5.707664012900000   -0.000005599111319    0.000007636845112    0.000006258487701
46    8.561496019300000    2.853832006400000    8.561496019300000    0.000509608536959   -0.000017281621695    0.000002428889275
54    5.707664012900000    0.000000000000000    8.561496019300000    0.000322826206684    0.000009781215340    0.000001460313797
62    5.707664012900000    2.853832006400000    5.707664012900000    0.000068634748459   -0.000006091780961    0.000006139278412
70    7.134580016099999    4.280748009700000    9.988412022600000    0.000010155141354   -0.000154502689838    0.000062979757786
78    7.134580016099999    1.426916003200000    9.988412022600000   -0.000004872679710   -0.000204667448997    0.000204697251320
86    7.134580016099999    1.426916003200000    7.134580016099999    0.000015959143639   -0.000058494508266    0.000155549496412
94    7.134580016099999    4.280748009700000    7.134580016099999    0.000000759959221   -0.000012466683984    0.000013642013073
102    9.988412022600000    4.280748009700000    7.134580016099999    0.000042710933485   -0.000000625848770    0.000001281499863
110    9.988412022600000    1.426916003200000    7.134580016099999   -0.000069574030931    0.000096037983894   -0.000362306833267
118    9.988412022600000    1.426916003200000    9.988412022600000    0.004406588152051   -0.005773037672043    0.005774672143161
126    9.988412022600000    4.280748009700000    9.988412022600000   -0.000069126486778    0.000358983874321   -0.000096343457699
4    0.000000000000000    5.707664012900000    5.707664012900000   -0.000078647288319    0.000008046627045    0.000008583068848
12    0.000000000000000    8.561496019300000    8.561496019300000    0.000173122462002   -0.000076644122601   -0.000079683959484
20    2.853832006400000    5.707664012900000    8.561496019300000    0.000029288232327    0.000008553266525   -0.000025853514671
28    2.853832006400000    8.561496019300000    5.707664012900000    0.000028925016522   -0.000027731060982    0.000007867813110
36    2.853832006400000    5.707664012900000    5.707664012900000    0.000135451555252    0.000006273388863    0.000004008412361
44    2.853832006400000    8.561496019300000    8.561496019300000    0.000814944505692   -0.000289425253868   -0.000286459922791
52    0.000000000000000    5.707664012900000    8.561496019300000   -0.000213228166103    0.000005170702934   -0.000008486211300
60    0.000000000000000    8.561496019300000    5.707664012900000   -0.000210676342249   -0.000007571652532    0.000006236135960
68    1.426916003200000    9.988412022600000    9.988412022600000    0.005635228473693   -0.007342718541622   -0.007344812154770
76    1.426916003200000    7.134580016099999    9.988412022600000   -0.000088098648121    0.000321939587593    0.000128477811813
84    1.426916003200000    7.134580016099999    7.134580016099999    0.000031428389775   -0.000030934810638   -0.000031694769859
92    1.426916003200000    9.988412022600000    7.134580016099999   -0.000086031723185    0.000130526721478    0.000325024127960
100    4.280748009700000    9.988412022600000    7.134580016099999    0.000023119151592   -0.000035606324673   -0.000154681503773
108    4.280748009700000    7.134580016099999    7.134580016099999    0.000005898997188   -0.000022768974304   -0.000018149614334
116    4.280748009700000    7.134580016099999    9.988412022600000    0.000024355947971   -0.000158168375492   -0.000038541853428
124    4.280748009700000    9.988412022600000    9.988412022600000    0.000087432563305   -0.000319361686707   -0.000319309532642
8    5.707664012900000    5.707664012900000    5.707664012900000   -0.000037625432014    0.000008165836334    0.000007539987564
16    5.707664012900000    8.561496019300000    8.561496019300000   -0.000053226947784   -0.000019058585167   -0.000022105872631
24    8.561496019300000    5.707664012900000    8.561496019300000    0.000020705163479    0.000005513429642   -0.000000216066837
32    8.561496019300000    8.561496019300000    5.707664012900000    0.000017739832401    0.000003397464752    0.000010222196579
40    8.561496019300000    5.707664012900000    5.707664012900000    0.000134497880936    0.000005722045898    0.000007666647434
48    8.561496019300000    8.561496019300000    8.561496019300000    0.000512685626745    0.000003345310688   -0.000001639127731
56    5.707664012900000    5.707664012900000    8.561496019300000    0.000067420303822    0.000006273388863   -0.000006932765245
64    5.707664012900000    8.561496019300000    5.707664012900000    0.000068873167038   -0.000004602363333    0.000007770955563
72    7.134580016099999    9.988412022600000    9.988412022600000   -0.000003457069397    0.000206157565117    0.000204324722290
80    7.134580016099999    7.134580016099999    9.988412022600000    0.000014409422874    0.000153999775648    0.000059664249420
88    7.134580016099999    7.134580016099999    7.134580016099999    0.000000551342964    0.000012308359146    0.000013574957848
96    7.134580016099999    9.988412022600000    7.134580016099999    0.000015467405319    0.000060297548771    0.000158417969942
104    9.988412022600000    9.988412022600000    7.134580016099999   -0.000069970636105   -0.000097647309303   -0.000357240438461
112    9.988412022600000    7.134580016099999    7.134580016099999    0.000044150583562   -0.000000551342964    0.000003620982170
120    9.988412022600000    7.134580016099999    9.988412022600000   -0.000070141271863   -0.000361785292625   -0.000097855656350
128    9.988412022600000    9.988412022600000    9.988412022600000    0.004400491248816    0.005776426289231    0.005777143407613
