
:LABEL1: Calculations in /home/inukai/WIEN2k/Al-phonon/1
:LABEL2: on MSI at Sat Nov  5 20:43:53 JST 2022
:LABEL3: using WIEN2k_16.1 (Release 12/12/2016) in /home/inukai/WIEN2k_16
:LABEL4: using the command: run_lapw -fc 1.0
 Flat Integration
 New Mode for Coulomb Integral
 Consistent 3/8+Simpson combinations
 Extension of core to zero
 LDM version in phi
 Fifth-order quadrature in outwin


            ---------
:ITE001:  1. ITERATION
            ---------

:NATO :   32 INDEPENDENT AND   32 TOTAL ATOMS IN UNITCELL
       SUBSTANCE: Title                                                       

       LATTICE                      = P   
:POT  : POTENTIAL OPTION EX_PBE EC_PBE VX_PBE VC_PBE
:LAT  : LATTICE CONSTANTS= 15.26898 15.26898 15.26898    1.571    1.571    1.571
:VOL  : UNIT CELL VOLUME =    3559.83952
       MODE OF CALCULATION IS       = RELA
       NON-SPINPOLARIZED CALCULATION
:IFFT  : FFT-parameters:  120  120  120 Factor: 2.00
       ATOMNUMBER=  1 Al1        VCOUL-ZERO =  0.30003E+00
:EFG001:                        EFG         =    -0.00001   *10**21  V / m**2
                               V20  TOT/SRF=     0.00000     0.00000
                               V22  TOT/SRF=    -0.00001    -0.00001
                               V22M TOT/SRF=     0.00000     0.00000
                               V21  TOT/SRF=    -0.00000     0.00000
                               V21M TOT/SRF=    -0.00000     0.00000

             -0.00001    0.00000   -0.00000       -0.00001    0.00000    0.00000
              0.00000    0.00000   -0.00000        0.00000    0.00000    0.00000
             -0.00000   -0.00000    0.00000        0.00000    0.00000    0.00000

         MAIN DIRECTIONS OF THE EFG   1.0000  0.0000 -0.0000
                                     -0.0000  1.0000  0.0000
                                      0.0000 -0.0000  1.0000
:ANG001:  ANGLE WITH OLD X-AXIS =         0.0

:ETA001:                         ASYMM. ETA =     0.05584


       ATOMNUMBER=  2 Al2        VCOUL-ZERO =  0.30004E+00
:EFG002:                        EFG         =     0.00000   *10**21  V / m**2
                               V20  TOT/SRF=     0.00000    -0.00000
                               V22  TOT/SRF=     0.00000     0.00000
                               V22M TOT/SRF=     0.00000     0.00000
                               V21  TOT/SRF=    -0.00000     0.00000
                               V21M TOT/SRF=    -0.00000    -0.00000

             -0.00000    0.00000   -0.00000       -0.00000    0.00000    0.00000
              0.00000   -0.00000   -0.00000        0.00000   -0.00000    0.00000
             -0.00000   -0.00000    0.00000        0.00000    0.00000    0.00000

         MAIN DIRECTIONS OF THE EFG   1.0000 -0.0034 -0.0000
                                      0.0034  1.0000 -0.0000
                                      0.0000  0.0000  1.0000
:ANG002:  ANGLE WITH OLD X-AXIS =         0.2

:ETA002:                         ASYMM. ETA =     0.00000


       ATOMNUMBER=  3 Al3        VCOUL-ZERO =  0.30004E+00
:EFG003:                        EFG         =     0.00000   *10**21  V / m**2
                               V20  TOT/SRF=     0.00000     0.00000
                               V22  TOT/SRF=     0.00000     0.00000
                               V22M TOT/SRF=    -0.00000    -0.00000
                               V21  TOT/SRF=    -0.00000    -0.00000
                               V21M TOT/SRF=     0.00000    -0.00000

             -0.00000   -0.00000   -0.00000       -0.00000    0.00000    0.00000
             -0.00000   -0.00000    0.00000        0.00000   -0.00000    0.00000
             -0.00000    0.00000    0.00000        0.00000    0.00000    0.00000

         MAIN DIRECTIONS OF THE EFG   1.0000  0.0008 -0.0000
                                     -0.0008  1.0000  0.0000
                                      0.0000 -0.0000  1.0000
:ANG003:  ANGLE WITH OLD X-AXIS =         0.0

:ETA003:                         ASYMM. ETA =     0.00000


       ATOMNUMBER=  4 Al4        VCOUL-ZERO =  0.30004E+00
:EFG004:                        EFG         =     0.00000   *10**21  V / m**2
                               V20  TOT/SRF=     0.00000     0.00000
                               V22  TOT/SRF=     0.00000     0.00000
                               V22M TOT/SRF=    -0.00000    -0.00000
                               V21  TOT/SRF=    -0.00000     0.00000
                               V21M TOT/SRF=     0.00000    -0.00000

             -0.00000   -0.00000   -0.00000       -0.00000    0.00000    0.00000
             -0.00000   -0.00000    0.00000        0.00000    0.00000    0.00000
             -0.00000    0.00000    0.00000        0.00000    0.00000   -0.00000

         MAIN DIRECTIONS OF THE EFG   1.0000 -0.0000  0.0428
                                     -0.0428  0.0000  1.0000
                                      0.0000  1.0000 -0.0000
:ANG004:  ANGLE WITH OLD X-AXIS =         2.5

:ETA004:                         ASYMM. ETA =     0.00000


       ATOMNUMBER=  5 Al5        VCOUL-ZERO =  0.30004E+00
:EFG005:                        EFG         =    -0.00000   *10**21  V / m**2
                               V20  TOT/SRF=     0.00000    -0.00000
                               V22  TOT/SRF=     0.00000     0.00000
                               V22M TOT/SRF=    -0.00000    -0.00000
                               V21  TOT/SRF=     0.00000     0.00000
                               V21M TOT/SRF=    -0.00000    -0.00000

              0.00000   -0.00000    0.00000        0.00000    0.00000    0.00000
             -0.00000   -0.00000   -0.00000        0.00000   -0.00000    0.00000
              0.00000   -0.00000    0.00000        0.00000    0.00000    0.00000

         MAIN DIRECTIONS OF THE EFG   1.0000  0.0002 -0.0000
                                     -0.0002  1.0000 -0.0000
                                      0.0000  0.0000  1.0000
:ANG005:  ANGLE WITH OLD X-AXIS =         0.0

:ETA005:                         ASYMM. ETA =     0.00000


       ATOMNUMBER=  6 Al6        VCOUL-ZERO =  0.30004E+00
:EFG006:                        EFG         =     0.00000   *10**21  V / m**2
                               V20  TOT/SRF=     0.00000     0.00000
                               V22  TOT/SRF=     0.00000     0.00000
                               V22M TOT/SRF=    -0.00000    -0.00000
                               V21  TOT/SRF=     0.00000    -0.00000
                               V21M TOT/SRF=    -0.00000    -0.00000

             -0.00000   -0.00000    0.00000       -0.00000    0.00000    0.00000
             -0.00000   -0.00000   -0.00000        0.00000   -0.00000    0.00000
              0.00000   -0.00000    0.00000        0.00000    0.00000    0.00000

         MAIN DIRECTIONS OF THE EFG   1.0000  0.0189  0.0000
                                     -0.0189  1.0000 -0.0000
                                     -0.0000  0.0000  1.0000
:ANG006:  ANGLE WITH OLD X-AXIS =         1.1

:ETA006:                         ASYMM. ETA =     0.00000


       ATOMNUMBER=  7 Al7        VCOUL-ZERO =  0.30004E+00
:EFG007:                        EFG         =     0.00000   *10**21  V / m**2
                               V20  TOT/SRF=     0.00000     0.00000
                               V22  TOT/SRF=    -0.00000    -0.00000
                               V22M TOT/SRF=     0.00000     0.00000
                               V21  TOT/SRF=     0.00000     0.00000
                               V21M TOT/SRF=     0.00000    -0.00000

             -0.00000    0.00000    0.00000       -0.00000    0.00000    0.00000
              0.00000   -0.00000    0.00000        0.00000   -0.00000    0.00000
              0.00000    0.00000    0.00000        0.00000    0.00000    0.00000

         MAIN DIRECTIONS OF THE EFG   1.0000  0.0062  0.0000
                                     -0.0062  1.0000  0.0000
                                     -0.0000 -0.0000  1.0000
:ANG007:  ANGLE WITH OLD X-AXIS =         0.4

:ETA007:                         ASYMM. ETA =     0.00000


       ATOMNUMBER=  8 Al8        VCOUL-ZERO =  0.30004E+00
:EFG008:                        EFG         =     0.00000   *10**21  V / m**2
                               V20  TOT/SRF=     0.00000     0.00000
                               V22  TOT/SRF=    -0.00000    -0.00000
                               V22M TOT/SRF=     0.00000     0.00000
                               V21  TOT/SRF=     0.00000    -0.00000
                               V21M TOT/SRF=     0.00000    -0.00000

             -0.00000    0.00000    0.00000       -0.00000    0.00000    0.00000
              0.00000   -0.00000    0.00000        0.00000    0.00000    0.00000
              0.00000    0.00000    0.00000        0.00000    0.00000   -0.00000

         MAIN DIRECTIONS OF THE EFG   1.0000  0.0000  0.0386
                                     -0.0386  0.0000  1.0000
                                     -0.0000  1.0000 -0.0000
:ANG008:  ANGLE WITH OLD X-AXIS =         2.2

:ETA008:                         ASYMM. ETA =     0.00000


       ATOMNUMBER=  9 Al9        VCOUL-ZERO =  0.30005E+00
:EFG009:                        EFG         =    -0.00022   *10**21  V / m**2
                               V20  TOT/SRF=    -0.00000    -0.00000
                               V22  TOT/SRF=     0.00000     0.00000
                               V22M TOT/SRF=    -0.00016    -0.00024
                               V21  TOT/SRF=    -0.00016    -0.00024
                               V21M TOT/SRF=    -0.00000    -0.00000

              0.00000   -0.00016   -0.00016        0.00022    0.00000    0.00000
             -0.00016   -0.00000   -0.00000        0.00000   -0.00022    0.00000
             -0.00016   -0.00000   -0.00000        0.00000    0.00000    0.00000

         MAIN DIRECTIONS OF THE EFG   1.0000  1.0000 -0.0032
                                     -0.6992  0.7150  1.0000
                                     -0.7025  0.7119 -0.9999
:ANG009:  ANGLE WITH OLD X-AXIS =        45.0

:ETA009:                         ASYMM. ETA =     0.99000


       ATOMNUMBER= 10 Al10       VCOUL-ZERO =  0.30005E+00
:EFG010:                        EFG         =    -0.00022   *10**21  V / m**2
                               V20  TOT/SRF=    -0.00000    -0.00000
                               V22  TOT/SRF=     0.00000     0.00000
                               V22M TOT/SRF=    -0.00016    -0.00024
                               V21  TOT/SRF=     0.00016     0.00024
                               V21M TOT/SRF=     0.00000     0.00000

              0.00000   -0.00016    0.00016        0.00022    0.00000    0.00000
             -0.00016   -0.00000    0.00000        0.00000   -0.00022    0.00000
              0.00016    0.00000   -0.00000        0.00000    0.00000    0.00000

         MAIN DIRECTIONS OF THE EFG   1.0000  1.0000 -0.0032
                                     -0.6992  0.7150  1.0000
                                      0.7025 -0.7119  0.9999
:ANG010:  ANGLE WITH OLD X-AXIS =        45.0

:ETA010:                         ASYMM. ETA =     0.99000


       ATOMNUMBER= 11 Al11       VCOUL-ZERO =  0.30005E+00
:EFG011:                        EFG         =    -0.00022   *10**21  V / m**2
                               V20  TOT/SRF=    -0.00000    -0.00000
                               V22  TOT/SRF=     0.00000     0.00000
                               V22M TOT/SRF=     0.00016     0.00024
                               V21  TOT/SRF=    -0.00016    -0.00024
                               V21M TOT/SRF=     0.00000     0.00000

              0.00000    0.00016   -0.00016        0.00022    0.00000    0.00000
              0.00016   -0.00000    0.00000        0.00000   -0.00022    0.00000
             -0.00016    0.00000   -0.00000        0.00000    0.00000    0.00000

         MAIN DIRECTIONS OF THE EFG   1.0000  1.0000  0.0032
                                      0.6992 -0.7150  1.0000
                                     -0.7025  0.7119  0.9999
:ANG011:  ANGLE WITH OLD X-AXIS =        45.0

:ETA011:                         ASYMM. ETA =     0.99000


       ATOMNUMBER= 12 Al12       VCOUL-ZERO =  0.30005E+00
:EFG012:                        EFG         =    -0.00022   *10**21  V / m**2
                               V20  TOT/SRF=    -0.00000    -0.00000
                               V22  TOT/SRF=     0.00000     0.00000
                               V22M TOT/SRF=     0.00016     0.00024
                               V21  TOT/SRF=     0.00016     0.00024
                               V21M TOT/SRF=    -0.00000    -0.00000

              0.00000    0.00016    0.00016        0.00022    0.00000    0.00000
              0.00016   -0.00000   -0.00000        0.00000   -0.00022    0.00000
              0.00016   -0.00000   -0.00000        0.00000    0.00000    0.00000

         MAIN DIRECTIONS OF THE EFG   1.0000  1.0000  0.0032
                                      0.6992 -0.7150  1.0000
                                      0.7025 -0.7119 -0.9999
:ANG012:  ANGLE WITH OLD X-AXIS =        45.0

:ETA012:                         ASYMM. ETA =     0.99000


       ATOMNUMBER= 13 Al13       VCOUL-ZERO =  0.30004E+00
:EFG013:                        EFG         =    -0.00001   *10**21  V / m**2
                               V20  TOT/SRF=     0.00000     0.00000
                               V22  TOT/SRF=     0.00000     0.00000
                               V22M TOT/SRF=     0.00001     0.00001
                               V21  TOT/SRF=     0.00001     0.00001
                               V21M TOT/SRF=     0.00000     0.00000

             -0.00000    0.00001    0.00001       -0.00001    0.00000    0.00000
              0.00001   -0.00000    0.00000        0.00000    0.00001    0.00000
              0.00001    0.00000    0.00000        0.00000    0.00000    0.00000

         MAIN DIRECTIONS OF THE EFG   1.0000  1.0000  0.0823
                                     -0.7282  0.6825  1.0000
                                     -0.6517  0.7717 -0.9911
:ANG013:  ANGLE WITH OLD X-AXIS =        45.1

:ETA013:                         ASYMM. ETA =     0.98406


       ATOMNUMBER= 14 Al14       VCOUL-ZERO =  0.30004E+00
:EFG014:                        EFG         =    -0.00001   *10**21  V / m**2
                               V20  TOT/SRF=     0.00000     0.00000
                               V22  TOT/SRF=     0.00000     0.00000
                               V22M TOT/SRF=     0.00001     0.00001
                               V21  TOT/SRF=    -0.00001    -0.00001
                               V21M TOT/SRF=    -0.00000    -0.00000

             -0.00000    0.00001   -0.00001       -0.00001    0.00000    0.00000
              0.00001   -0.00000   -0.00000        0.00000    0.00001    0.00000
             -0.00001   -0.00000    0.00000        0.00000    0.00000    0.00000

         MAIN DIRECTIONS OF THE EFG   1.0000  1.0000  0.0823
                                     -0.7282  0.6825  1.0000
                                      0.6517 -0.7717  0.9911
:ANG014:  ANGLE WITH OLD X-AXIS =        45.1

:ETA014:                         ASYMM. ETA =     0.98406


       ATOMNUMBER= 15 Al15       VCOUL-ZERO =  0.30004E+00
:EFG015:                        EFG         =    -0.00001   *10**21  V / m**2
                               V20  TOT/SRF=     0.00000     0.00000
                               V22  TOT/SRF=     0.00000     0.00000
                               V22M TOT/SRF=    -0.00001    -0.00001
                               V21  TOT/SRF=     0.00001     0.00001
                               V21M TOT/SRF=    -0.00000    -0.00000

             -0.00000   -0.00001    0.00001       -0.00001    0.00000    0.00000
             -0.00001   -0.00000   -0.00000        0.00000    0.00001    0.00000
              0.00001   -0.00000    0.00000        0.00000    0.00000    0.00000

         MAIN DIRECTIONS OF THE EFG   1.0000  1.0000 -0.0821
                                      0.7281 -0.6827  1.0000
                                     -0.6518  0.7716  0.9911
:ANG015:  ANGLE WITH OLD X-AXIS =        45.1

:ETA015:                         ASYMM. ETA =     0.98411


       ATOMNUMBER= 16 Al16       VCOUL-ZERO =  0.30004E+00
:EFG016:                        EFG         =    -0.00001   *10**21  V / m**2
                               V20  TOT/SRF=     0.00000     0.00000
                               V22  TOT/SRF=     0.00000     0.00000
                               V22M TOT/SRF=    -0.00001    -0.00001
                               V21  TOT/SRF=    -0.00001    -0.00001
                               V21M TOT/SRF=     0.00000     0.00000

             -0.00000   -0.00001   -0.00001       -0.00001    0.00000    0.00000
             -0.00001   -0.00000    0.00000        0.00000    0.00001    0.00000
             -0.00001    0.00000    0.00000        0.00000    0.00000    0.00000

         MAIN DIRECTIONS OF THE EFG   1.0000  1.0000 -0.0821
                                      0.7281 -0.6827  1.0000
                                      0.6518 -0.7716 -0.9911
:ANG016:  ANGLE WITH OLD X-AXIS =        45.1

:ETA016:                         ASYMM. ETA =     0.98411


       ATOMNUMBER= 17 Al17       VCOUL-ZERO =  0.29977E+00
:EFG017:                        EFG         =     0.00079   *10**21  V / m**2
                               V20  TOT/SRF=     0.00030     0.00046
                               V22  TOT/SRF=     0.00021     0.00032
                               V22M TOT/SRF=     0.00000     0.00000
                               V21  TOT/SRF=     0.00057     0.00088
                               V21M TOT/SRF=    -0.00000    -0.00000

              0.00003    0.00000    0.00057        0.00079    0.00000    0.00000
              0.00000   -0.00038   -0.00000        0.00000   -0.00040    0.00000
              0.00057   -0.00000    0.00035        0.00000    0.00000   -0.00038

         MAIN DIRECTIONS OF THE EFG   0.7592  1.0000  0.0000
                                      0.0000 -0.0000  1.0000
                                      1.0000 -0.7592 -0.0000
:ANG017:  ANGLE WITH OLD X-AXIS =        52.8

:ETA017:                         ASYMM. ETA =     0.02584


       ATOMNUMBER= 18 Al18       VCOUL-ZERO =  0.29977E+00
:EFG018:                        EFG         =     0.00079   *10**21  V / m**2
                               V20  TOT/SRF=     0.00030     0.00046
                               V22  TOT/SRF=     0.00021     0.00032
                               V22M TOT/SRF=     0.00000     0.00000
                               V21  TOT/SRF=    -0.00057    -0.00088
                               V21M TOT/SRF=     0.00000     0.00000

              0.00003    0.00000   -0.00057        0.00079    0.00000    0.00000
              0.00000   -0.00038    0.00000        0.00000   -0.00040    0.00000
             -0.00057    0.00000    0.00035        0.00000    0.00000   -0.00038

         MAIN DIRECTIONS OF THE EFG  -0.7592  1.0000  0.0000
                                     -0.0000 -0.0000  1.0000
                                      1.0000  0.7592  0.0000
:ANG018:  ANGLE WITH OLD X-AXIS =       127.2

:ETA018:                         ASYMM. ETA =     0.02584


       ATOMNUMBER= 19 Al19       VCOUL-ZERO =  0.30004E+00
:EFG019:                        EFG         =     0.00000   *10**21  V / m**2
                               V20  TOT/SRF=    -0.00000    -0.00000
                               V22  TOT/SRF=    -0.00000    -0.00000
                               V22M TOT/SRF=    -0.00000    -0.00000
                               V21  TOT/SRF=     0.00000     0.00000
                               V21M TOT/SRF=     0.00000    -0.00000

             -0.00000   -0.00000    0.00000       -0.00000    0.00000    0.00000
             -0.00000    0.00000    0.00000        0.00000   -0.00000    0.00000
              0.00000    0.00000   -0.00000        0.00000    0.00000    0.00000

         MAIN DIRECTIONS OF THE EFG   1.0000  0.3062 -0.0001
                                      0.0001  0.0000  1.0000
                                     -0.3062  1.0000 -0.0000
:ANG019:  ANGLE WITH OLD X-AXIS =        17.0

:ETA019:                         ASYMM. ETA =     0.89183


       ATOMNUMBER= 20 Al20       VCOUL-ZERO =  0.30004E+00
:EFG020:                        EFG         =     0.00000   *10**21  V / m**2
                               V20  TOT/SRF=    -0.00000    -0.00000
                               V22  TOT/SRF=    -0.00000    -0.00000
                               V22M TOT/SRF=    -0.00000    -0.00000
                               V21  TOT/SRF=    -0.00000    -0.00000
                               V21M TOT/SRF=     0.00000     0.00000

             -0.00000   -0.00000   -0.00000       -0.00000    0.00000    0.00000
             -0.00000    0.00000    0.00000        0.00000   -0.00000    0.00000
             -0.00000    0.00000   -0.00000        0.00000    0.00000    0.00000

         MAIN DIRECTIONS OF THE EFG   1.0000 -0.3062 -0.0001
                                      0.0001 -0.0000  1.0000
                                      0.3062  1.0000  0.0000
:ANG020:  ANGLE WITH OLD X-AXIS =        17.0

:ETA020:                         ASYMM. ETA =     0.89183


       ATOMNUMBER= 21 Al21       VCOUL-ZERO =  0.30032E+00
:EFG021:                        EFG         =    -0.00078   *10**21  V / m**2
                               V20  TOT/SRF=    -0.00030    -0.00045
                               V22  TOT/SRF=    -0.00021    -0.00032
                               V22M TOT/SRF=    -0.00000    -0.00000
                               V21  TOT/SRF=     0.00057     0.00087
                               V21M TOT/SRF=    -0.00000    -0.00000

             -0.00004   -0.00000    0.00057       -0.00078    0.00000    0.00000
             -0.00000    0.00038   -0.00000        0.00000    0.00040    0.00000
              0.00057   -0.00000   -0.00034        0.00000    0.00000    0.00038

         MAIN DIRECTIONS OF THE EFG  -0.7666  1.0000  0.0000
                                     -0.0000 -0.0000  1.0000
                                      1.0000  0.7666  0.0000
:ANG021:  ANGLE WITH OLD X-AXIS =       127.5

:ETA021:                         ASYMM. ETA =     0.02623


       ATOMNUMBER= 22 Al22       VCOUL-ZERO =  0.30032E+00
:EFG022:                        EFG         =    -0.00078   *10**21  V / m**2
                               V20  TOT/SRF=    -0.00030    -0.00045
                               V22  TOT/SRF=    -0.00021    -0.00032
                               V22M TOT/SRF=    -0.00000    -0.00000
                               V21  TOT/SRF=    -0.00057    -0.00087
                               V21M TOT/SRF=     0.00000     0.00000

             -0.00004   -0.00000   -0.00057       -0.00078    0.00000    0.00000
             -0.00000    0.00038    0.00000        0.00000    0.00040    0.00000
             -0.00057    0.00000   -0.00034        0.00000    0.00000    0.00038

         MAIN DIRECTIONS OF THE EFG   0.7666  1.0000  0.0000
                                      0.0000 -0.0000  1.0000
                                      1.0000 -0.7666 -0.0000
:ANG022:  ANGLE WITH OLD X-AXIS =        52.5

:ETA022:                         ASYMM. ETA =     0.02623


       ATOMNUMBER= 23 Al23       VCOUL-ZERO =  0.30005E+00
:EFG023:                        EFG         =    -0.00000   *10**21  V / m**2
                               V20  TOT/SRF=     0.00000     0.00000
                               V22  TOT/SRF=     0.00000     0.00000
                               V22M TOT/SRF=     0.00000     0.00000
                               V21  TOT/SRF=     0.00000     0.00000
                               V21M TOT/SRF=     0.00000    -0.00000

              0.00000    0.00000    0.00000        0.00000    0.00000    0.00000
              0.00000   -0.00000    0.00000        0.00000    0.00000    0.00000
              0.00000    0.00000    0.00000        0.00000    0.00000   -0.00000

         MAIN DIRECTIONS OF THE EFG   1.0000 -0.7088 -0.0001
                                      0.0001 -0.0001  1.0000
                                      0.7088  1.0000  0.0000
:ANG023:  ANGLE WITH OLD X-AXIS =        35.3

:ETA023:                         ASYMM. ETA =     0.45745


       ATOMNUMBER= 24 Al24       VCOUL-ZERO =  0.30005E+00
:EFG024:                        EFG         =    -0.00000   *10**21  V / m**2
                               V20  TOT/SRF=     0.00000     0.00000
                               V22  TOT/SRF=     0.00000     0.00000
                               V22M TOT/SRF=     0.00000     0.00000
                               V21  TOT/SRF=    -0.00000    -0.00000
                               V21M TOT/SRF=     0.00000     0.00000

              0.00000    0.00000   -0.00000        0.00000    0.00000    0.00000
              0.00000   -0.00000    0.00000        0.00000    0.00000    0.00000
             -0.00000    0.00000    0.00000        0.00000    0.00000   -0.00000

         MAIN DIRECTIONS OF THE EFG   1.0000  0.7088 -0.0001
                                      0.0001  0.0001  1.0000
                                     -0.7088  1.0000 -0.0000
:ANG024:  ANGLE WITH OLD X-AXIS =        35.3

:ETA024:                         ASYMM. ETA =     0.45745


       ATOMNUMBER= 25 Al25       VCOUL-ZERO =  0.29977E+00
:EFG025:                        EFG         =     0.00078   *10**21  V / m**2
                               V20  TOT/SRF=    -0.00033    -0.00051
                               V22  TOT/SRF=    -0.00016    -0.00024
                               V22M TOT/SRF=     0.00057     0.00088
                               V21  TOT/SRF=     0.00000     0.00000
                               V21M TOT/SRF=     0.00000     0.00000

              0.00003    0.00057    0.00000        0.00078    0.00000    0.00000
              0.00057    0.00035    0.00000        0.00000   -0.00040    0.00000
              0.00000    0.00000   -0.00038        0.00000    0.00000   -0.00038

         MAIN DIRECTIONS OF THE EFG   0.7593  1.0000  0.0000
                                      1.0000 -0.7593 -0.0000
                                      0.0000 -0.0000  1.0000
:ANG025:  ANGLE WITH OLD X-AXIS =        52.8

:ETA025:                         ASYMM. ETA =     0.02615


       ATOMNUMBER= 26 Al26       VCOUL-ZERO =  0.30004E+00
:EFG026:                        EFG         =     0.00000   *10**21  V / m**2
                               V20  TOT/SRF=     0.00000     0.00000
                               V22  TOT/SRF=    -0.00000    -0.00000
                               V22M TOT/SRF=     0.00000     0.00000
                               V21  TOT/SRF=    -0.00000     0.00000
                               V21M TOT/SRF=    -0.00000     0.00000

             -0.00000    0.00000   -0.00000       -0.00000    0.00000    0.00000
              0.00000   -0.00000   -0.00000        0.00000   -0.00000    0.00000
             -0.00000   -0.00000    0.00000        0.00000    0.00000    0.00000

         MAIN DIRECTIONS OF THE EFG   1.0000  0.4376 -0.0000
                                     -0.4376  1.0000 -0.0000
                                      0.0000  0.0000  1.0000
:ANG026:  ANGLE WITH OLD X-AXIS =        23.6

:ETA026:                         ASYMM. ETA =     0.53746


       ATOMNUMBER= 27 Al27       VCOUL-ZERO =  0.29977E+00
:EFG027:                        EFG         =     0.00078   *10**21  V / m**2
                               V20  TOT/SRF=    -0.00033    -0.00051
                               V22  TOT/SRF=    -0.00016    -0.00024
                               V22M TOT/SRF=    -0.00057    -0.00088
                               V21  TOT/SRF=    -0.00000     0.00000
                               V21M TOT/SRF=    -0.00000     0.00000

              0.00003   -0.00057   -0.00000        0.00078    0.00000    0.00000
             -0.00057    0.00035   -0.00000        0.00000   -0.00040    0.00000
             -0.00000   -0.00000   -0.00038        0.00000    0.00000   -0.00038

         MAIN DIRECTIONS OF THE EFG  -0.7593  1.0000 -0.0000
                                      1.0000  0.7593 -0.0000
                                      0.0000  0.0000  1.0000
:ANG027:  ANGLE WITH OLD X-AXIS =       127.2

:ETA027:                         ASYMM. ETA =     0.02615


       ATOMNUMBER= 28 Al28       VCOUL-ZERO =  0.30004E+00
:EFG028:                        EFG         =     0.00000   *10**21  V / m**2
                               V20  TOT/SRF=     0.00000     0.00000
                               V22  TOT/SRF=    -0.00000    -0.00000
                               V22M TOT/SRF=    -0.00000    -0.00000
                               V21  TOT/SRF=    -0.00000     0.00000
                               V21M TOT/SRF=     0.00000     0.00000

             -0.00000   -0.00000   -0.00000       -0.00000    0.00000    0.00000
             -0.00000   -0.00000    0.00000        0.00000   -0.00000    0.00000
             -0.00000    0.00000    0.00000        0.00000    0.00000    0.00000

         MAIN DIRECTIONS OF THE EFG   1.0000 -0.4380 -0.0000
                                      0.4380  1.0000  0.0000
                                      0.0000 -0.0000  1.0000
:ANG028:  ANGLE WITH OLD X-AXIS =        23.7

:ETA028:                         ASYMM. ETA =     0.53717


       ATOMNUMBER= 29 Al29       VCOUL-ZERO =  0.30032E+00
:EFG029:                        EFG         =    -0.00078   *10**21  V / m**2
                               V20  TOT/SRF=     0.00033     0.00050
                               V22  TOT/SRF=     0.00015     0.00023
                               V22M TOT/SRF=     0.00057     0.00087
                               V21  TOT/SRF=     0.00000     0.00000
                               V21M TOT/SRF=     0.00000     0.00000

             -0.00004    0.00057    0.00000       -0.00078    0.00000    0.00000
              0.00057   -0.00034    0.00000        0.00000    0.00040    0.00000
              0.00000    0.00000    0.00038        0.00000    0.00000    0.00038

         MAIN DIRECTIONS OF THE EFG  -0.7658  1.0000 -0.0000
                                      1.0000  0.7658 -0.0000
                                      0.0000  0.0000  1.0000
:ANG029:  ANGLE WITH OLD X-AXIS =       127.4

:ETA029:                         ASYMM. ETA =     0.02529


       ATOMNUMBER= 30 Al30       VCOUL-ZERO =  0.30005E+00
:EFG030:                        EFG         =    -0.00000   *10**21  V / m**2
                               V20  TOT/SRF=    -0.00000    -0.00000
                               V22  TOT/SRF=     0.00000     0.00000
                               V22M TOT/SRF=     0.00000     0.00000
                               V21  TOT/SRF=     0.00000     0.00000
                               V21M TOT/SRF=    -0.00000    -0.00000

              0.00000    0.00000    0.00000        0.00000    0.00000    0.00000
              0.00000    0.00000   -0.00000        0.00000    0.00000    0.00000
              0.00000   -0.00000   -0.00000        0.00000    0.00000   -0.00000

         MAIN DIRECTIONS OF THE EFG   1.0000 -0.4461 -0.0000
                                      0.4461  1.0000  0.0000
                                      0.0000 -0.0000  1.0000
:ANG030:  ANGLE WITH OLD X-AXIS =        24.0

:ETA030:                         ASYMM. ETA =     0.76102


       ATOMNUMBER= 31 Al31       VCOUL-ZERO =  0.30032E+00
:EFG031:                        EFG         =    -0.00078   *10**21  V / m**2
                               V20  TOT/SRF=     0.00033     0.00050
                               V22  TOT/SRF=     0.00015     0.00023
                               V22M TOT/SRF=    -0.00057    -0.00087
                               V21  TOT/SRF=     0.00000     0.00000
                               V21M TOT/SRF=    -0.00000     0.00000

             -0.00004   -0.00057    0.00000       -0.00078    0.00000    0.00000
             -0.00057   -0.00034   -0.00000        0.00000    0.00040    0.00000
              0.00000   -0.00000    0.00038        0.00000    0.00000    0.00038

         MAIN DIRECTIONS OF THE EFG   0.7658  1.0000 -0.0000
                                      1.0000 -0.7658  0.0000
                                     -0.0000  0.0000  1.0000
:ANG031:  ANGLE WITH OLD X-AXIS =        52.6

:ETA031:                         ASYMM. ETA =     0.02529


       ATOMNUMBER= 32 Al32       VCOUL-ZERO =  0.30005E+00
:EFG032:                        EFG         =    -0.00000   *10**21  V / m**2
                               V20  TOT/SRF=    -0.00000    -0.00000
                               V22  TOT/SRF=     0.00000     0.00000
                               V22M TOT/SRF=    -0.00000    -0.00000
                               V21  TOT/SRF=     0.00000     0.00000
                               V21M TOT/SRF=     0.00000     0.00000

              0.00000   -0.00000    0.00000        0.00000    0.00000    0.00000
             -0.00000    0.00000    0.00000        0.00000    0.00000    0.00000
              0.00000    0.00000   -0.00000        0.00000    0.00000   -0.00000

         MAIN DIRECTIONS OF THE EFG   1.0000  0.4465 -0.0000
                                     -0.4465  1.0000 -0.0000
                                      0.0000  0.0000  1.0000
:ANG032:  ANGLE WITH OLD X-AXIS =        24.1

:ETA032:                         ASYMM. ETA =     0.76060


     HELLMANN-FEYNMAN-FORCE IN mRy/a.u. = |F|  Fx       Fy             Fz
:FHF001:   1.ATOM      8.354405349020     -8.354405349018      0.000005021087      0.000000000020

     HELLMANN-FEYNMAN-FORCE IN mRy/a.u. = |F|  Fx       Fy             Fz
:FHF002:   2.ATOM      0.036488841787     -0.036488841694      0.000002610130      0.000000000001

     HELLMANN-FEYNMAN-FORCE IN mRy/a.u. = |F|  Fx       Fy             Fz
:FHF003:   3.ATOM      0.036670134864     -0.036670134781     -0.000002470231      0.000000000031

     HELLMANN-FEYNMAN-FORCE IN mRy/a.u. = |F|  Fx       Fy             Fz
:FHF004:   4.ATOM      0.001863549941     -0.001863548251     -0.000002510206      0.000000000016

     HELLMANN-FEYNMAN-FORCE IN mRy/a.u. = |F|  Fx       Fy             Fz
:FHF005:   5.ATOM      0.333716606393      0.333716606381     -0.000002846900      0.000000000030

     HELLMANN-FEYNMAN-FORCE IN mRy/a.u. = |F|  Fx       Fy             Fz
:FHF006:   6.ATOM      0.007269749479      0.007269749014     -0.000002599287      0.000000000012

     HELLMANN-FEYNMAN-FORCE IN mRy/a.u. = |F|  Fx       Fy             Fz
:FHF007:   7.ATOM      0.007342712124      0.007342711705      0.000002481252      0.000000000023

     HELLMANN-FEYNMAN-FORCE IN mRy/a.u. = |F|  Fx       Fy             Fz
:FHF008:   8.ATOM      0.000992581418      0.000992578238      0.000002512602      0.000000000035

     HELLMANN-FEYNMAN-FORCE IN mRy/a.u. = |F|  Fx       Fy             Fz
:FHF009:   9.ATOM      0.400932889786     -0.400892683610     -0.004018637449     -0.004011096165

     HELLMANN-FEYNMAN-FORCE IN mRy/a.u. = |F|  Fx       Fy             Fz
:FHF010:  10.ATOM      0.400932889792     -0.400892683616     -0.004018637458      0.004011096234

     HELLMANN-FEYNMAN-FORCE IN mRy/a.u. = |F|  Fx       Fy             Fz
:FHF011:  11.ATOM      0.400927812316     -0.400887603203      0.004018879689     -0.004011096205

     HELLMANN-FEYNMAN-FORCE IN mRy/a.u. = |F|  Fx       Fy             Fz
:FHF012:  12.ATOM      0.400927812328     -0.400887603215      0.004018879680      0.004011096254

     HELLMANN-FEYNMAN-FORCE IN mRy/a.u. = |F|  Fx       Fy             Fz
:FHF013:  13.ATOM      0.028392112655      0.028390825492      0.000213350944      0.000166042998

     HELLMANN-FEYNMAN-FORCE IN mRy/a.u. = |F|  Fx       Fy             Fz
:FHF014:  14.ATOM      0.028392112674      0.028390825511      0.000213350920     -0.000166042958

     HELLMANN-FEYNMAN-FORCE IN mRy/a.u. = |F|  Fx       Fy             Fz
:FHF015:  15.ATOM      0.028387034068      0.028385745415     -0.000213518502      0.000166043023

     HELLMANN-FEYNMAN-FORCE IN mRy/a.u. = |F|  Fx       Fy             Fz
:FHF016:  16.ATOM      0.028387034078      0.028385745425     -0.000213518466     -0.000166042964

     HELLMANN-FEYNMAN-FORCE IN mRy/a.u. = |F|  Fx       Fy             Fz
:FHF017:  17.ATOM      2.004147504172      1.198437195817      0.000012160634      1.606348500797

     HELLMANN-FEYNMAN-FORCE IN mRy/a.u. = |F|  Fx       Fy             Fz
:FHF018:  18.ATOM      2.004147504134      1.198437195836      0.000012160606     -1.606348500735

     HELLMANN-FEYNMAN-FORCE IN mRy/a.u. = |F|  Fx       Fy             Fz
:FHF019:  19.ATOM      0.008890307711      0.004035046291     -0.000012237563      0.007921857286

     HELLMANN-FEYNMAN-FORCE IN mRy/a.u. = |F|  Fx       Fy             Fz
:FHF020:  20.ATOM      0.008890307682      0.004035046319     -0.000012237569     -0.007921857239

     HELLMANN-FEYNMAN-FORCE IN mRy/a.u. = |F|  Fx       Fy             Fz
:FHF021:  21.ATOM      1.973494437251      1.186072267340     -0.000012315684     -1.577311912830

     HELLMANN-FEYNMAN-FORCE IN mRy/a.u. = |F|  Fx       Fy             Fz
:FHF022:  22.ATOM      1.973494437299      1.186072267327     -0.000012315678      1.577311912900

     HELLMANN-FEYNMAN-FORCE IN mRy/a.u. = |F|  Fx       Fy             Fz
:FHF023:  23.ATOM      0.008880628485      0.004058858605      0.000012234344     -0.007898802405

     HELLMANN-FEYNMAN-FORCE IN mRy/a.u. = |F|  Fx       Fy             Fz
:FHF024:  24.ATOM      0.008880628548      0.004058858607      0.000012234336      0.007898802475

     HELLMANN-FEYNMAN-FORCE IN mRy/a.u. = |F|  Fx       Fy             Fz
:FHF025:  25.ATOM      2.004244326678      1.198501392447      1.606421405897      0.000000000037

     HELLMANN-FEYNMAN-FORCE IN mRy/a.u. = |F|  Fx       Fy             Fz
:FHF026:  26.ATOM      0.008843201269      0.004019394160      0.007876971453     -0.000000000002

     HELLMANN-FEYNMAN-FORCE IN mRy/a.u. = |F|  Fx       Fy             Fz
:FHF027:  27.ATOM      2.004258793845      1.198525357107     -1.606421576386      0.000000000016

     HELLMANN-FEYNMAN-FORCE IN mRy/a.u. = |F|  Fx       Fy             Fz
:FHF028:  28.ATOM      0.008854337577      0.004043831003     -0.007876974339      0.000000000039

     HELLMANN-FEYNMAN-FORCE IN mRy/a.u. = |F|  Fx       Fy             Fz
:FHF029:  29.ATOM      1.973798738657      1.185867549522     -1.577846512090      0.000000000010

     HELLMANN-FEYNMAN-FORCE IN mRy/a.u. = |F|  Fx       Fy             Fz
:FHF030:  30.ATOM      0.008798595711      0.004065181603     -0.007803177880      0.000000000022

     HELLMANN-FEYNMAN-FORCE IN mRy/a.u. = |F|  Fx       Fy             Fz
:FHF031:  31.ATOM      1.973784215989      1.185843578714      1.577846360743     -0.000000000007

     HELLMANN-FEYNMAN-FORCE IN mRy/a.u. = |F|  Fx       Fy             Fz
:FHF032:  32.ATOM      0.008787328903      0.004040744720      0.007803174441      0.000000000024

:FIT001: LUSE= 13 SIGMA OF V-XC FIT FOR ATOM  1  0.1167710E-03
:FIT001: LUSE= 13 SIGMA OF V-XC FIT FOR ATOM  1  0.1167710E-03
:FIT002: LUSE= 13 SIGMA OF V-XC FIT FOR ATOM  2  0.1383796E-03
:FIT002: LUSE= 13 SIGMA OF V-XC FIT FOR ATOM  2  0.1383796E-03
:FIT003: LUSE= 13 SIGMA OF V-XC FIT FOR ATOM  3  0.1383898E-03
:FIT003: LUSE= 13 SIGMA OF V-XC FIT FOR ATOM  3  0.1383898E-03
:FIT004: LUSE= 13 SIGMA OF V-XC FIT FOR ATOM  4  0.1383594E-03
:FIT004: LUSE= 13 SIGMA OF V-XC FIT FOR ATOM  4  0.1383594E-03
:FIT005: LUSE= 13 SIGMA OF V-XC FIT FOR ATOM  5  0.1306641E-03
:FIT005: LUSE= 13 SIGMA OF V-XC FIT FOR ATOM  5  0.1306641E-03
:FIT006: LUSE= 13 SIGMA OF V-XC FIT FOR ATOM  6  0.1383464E-03
:FIT006: LUSE= 13 SIGMA OF V-XC FIT FOR ATOM  6  0.1383464E-03
:FIT007: LUSE= 13 SIGMA OF V-XC FIT FOR ATOM  7  0.1380648E-03
:FIT007: LUSE= 13 SIGMA OF V-XC FIT FOR ATOM  7  0.1380648E-03
:FIT008: LUSE= 13 SIGMA OF V-XC FIT FOR ATOM  8  0.1383576E-03
:FIT008: LUSE= 13 SIGMA OF V-XC FIT FOR ATOM  8  0.1383576E-03
:FIT009: LUSE= 13 SIGMA OF V-XC FIT FOR ATOM  9  0.1379043E-03
:FIT009: LUSE= 13 SIGMA OF V-XC FIT FOR ATOM  9  0.1379043E-03
:FIT010: LUSE= 13 SIGMA OF V-XC FIT FOR ATOM 10  0.1379043E-03
:FIT010: LUSE= 13 SIGMA OF V-XC FIT FOR ATOM 10  0.1379043E-03
:FIT011: LUSE= 13 SIGMA OF V-XC FIT FOR ATOM 11  0.1379043E-03
:FIT011: LUSE= 13 SIGMA OF V-XC FIT FOR ATOM 11  0.1379043E-03
:FIT012: LUSE= 13 SIGMA OF V-XC FIT FOR ATOM 12  0.1379043E-03
:FIT012: LUSE= 13 SIGMA OF V-XC FIT FOR ATOM 12  0.1379043E-03
:FIT013: LUSE= 13 SIGMA OF V-XC FIT FOR ATOM 13  0.1378600E-03
:FIT013: LUSE= 13 SIGMA OF V-XC FIT FOR ATOM 13  0.1378600E-03
:FIT014: LUSE= 13 SIGMA OF V-XC FIT FOR ATOM 14  0.1378600E-03
:FIT014: LUSE= 13 SIGMA OF V-XC FIT FOR ATOM 14  0.1378600E-03
:FIT015: LUSE= 13 SIGMA OF V-XC FIT FOR ATOM 15  0.1378600E-03
:FIT015: LUSE= 13 SIGMA OF V-XC FIT FOR ATOM 15  0.1378600E-03
:FIT016: LUSE= 13 SIGMA OF V-XC FIT FOR ATOM 16  0.1378600E-03
:FIT016: LUSE= 13 SIGMA OF V-XC FIT FOR ATOM 16  0.1378600E-03
:FIT017: LUSE= 13 SIGMA OF V-XC FIT FOR ATOM 17  0.1383820E-03
:FIT017: LUSE= 13 SIGMA OF V-XC FIT FOR ATOM 17  0.1383820E-03
:FIT018: LUSE= 13 SIGMA OF V-XC FIT FOR ATOM 18  0.1383820E-03
:FIT018: LUSE= 13 SIGMA OF V-XC FIT FOR ATOM 18  0.1383820E-03
:FIT019: LUSE= 13 SIGMA OF V-XC FIT FOR ATOM 19  0.1384819E-03
:FIT019: LUSE= 13 SIGMA OF V-XC FIT FOR ATOM 19  0.1384819E-03
:FIT020: LUSE= 13 SIGMA OF V-XC FIT FOR ATOM 20  0.1384819E-03
:FIT020: LUSE= 13 SIGMA OF V-XC FIT FOR ATOM 20  0.1384819E-03
:FIT021: LUSE= 13 SIGMA OF V-XC FIT FOR ATOM 21  0.1371648E-03
:FIT021: LUSE= 13 SIGMA OF V-XC FIT FOR ATOM 21  0.1371648E-03
:FIT022: LUSE= 13 SIGMA OF V-XC FIT FOR ATOM 22  0.1371648E-03
:FIT022: LUSE= 13 SIGMA OF V-XC FIT FOR ATOM 22  0.1371648E-03
:FIT023: LUSE= 13 SIGMA OF V-XC FIT FOR ATOM 23  0.1378857E-03
:FIT023: LUSE= 13 SIGMA OF V-XC FIT FOR ATOM 23  0.1378857E-03
:FIT024: LUSE= 13 SIGMA OF V-XC FIT FOR ATOM 24  0.1378857E-03
:FIT024: LUSE= 13 SIGMA OF V-XC FIT FOR ATOM 24  0.1378857E-03
:FIT025: LUSE= 13 SIGMA OF V-XC FIT FOR ATOM 25  0.1334033E-03
:FIT025: LUSE= 13 SIGMA OF V-XC FIT FOR ATOM 25  0.1334033E-03
:FIT026: LUSE= 13 SIGMA OF V-XC FIT FOR ATOM 26  0.1383678E-03
:FIT026: LUSE= 13 SIGMA OF V-XC FIT FOR ATOM 26  0.1383678E-03
:FIT027: LUSE= 13 SIGMA OF V-XC FIT FOR ATOM 27  0.1334033E-03
:FIT027: LUSE= 13 SIGMA OF V-XC FIT FOR ATOM 27  0.1334033E-03
:FIT028: LUSE= 13 SIGMA OF V-XC FIT FOR ATOM 28  0.1383678E-03
:FIT028: LUSE= 13 SIGMA OF V-XC FIT FOR ATOM 28  0.1383678E-03
:FIT029: LUSE= 13 SIGMA OF V-XC FIT FOR ATOM 29  0.1420680E-03
:FIT029: LUSE= 13 SIGMA OF V-XC FIT FOR ATOM 29  0.1420680E-03
:FIT030: LUSE= 13 SIGMA OF V-XC FIT FOR ATOM 30  0.1381532E-03
:FIT030: LUSE= 13 SIGMA OF V-XC FIT FOR ATOM 30  0.1381532E-03
:FIT031: LUSE= 13 SIGMA OF V-XC FIT FOR ATOM 31  0.1420680E-03
:FIT031: LUSE= 13 SIGMA OF V-XC FIT FOR ATOM 31  0.1420680E-03
:FIT032: LUSE= 13 SIGMA OF V-XC FIT FOR ATOM 32  0.1381532E-03
:FIT032: LUSE= 13 SIGMA OF V-XC FIT FOR ATOM 32  0.1381532E-03
:DEN  : DENSITY INTEGRAL  =         -7263.68493538   (Ry)
       ELS_POTENTIAL_AT Z=0 and Z=0.5:  -0.45094  -0.45094
       ELS_POTENTIAL_AT Y=0 and Y=0.5:  -0.45094  -0.45094
:VZERO:v0,v0c,v0x  -1.20618  -0.45094  -0.75524 v5,v5c,v5x  -1.20618  -0.45094  -0.75524
:VZERY:v0,v0c,v0x  -1.20618  -0.45094  -0.75524 v5,v5c,v5x  -1.20618  -0.45094  -0.75524
:VZERX:v0,v0c,v0x  -1.20614  -0.45090  -0.75524 v5,v5c,v5x  -1.20618  -0.45094  -0.75524
:LMAX-WF:   10   Non-Spherical LMAX:   4

          ATOMIC SPHERE DEPENDENT PARAMETERS FOR ATOM  Al1       
:e__0001: OVERALL ENERGY PARAMETER IS    0.3000
          OVERALL BASIS SET ON ATOM IS LAPW
:E1_0001: E( 1)=    0.3000
             APW+lo
:E1_0001: E( 1)=   -4.1791   E(BOTTOM)=   -4.197   E(TOP)=   -4.161  0  1   160
             LOCAL ORBITAL
:E0_0001: E( 0)=    0.3000
             APW+lo

          ATOMIC SPHERE DEPENDENT PARAMETERS FOR ATOM  Al2       
:e__0002: OVERALL ENERGY PARAMETER IS    0.3000
          OVERALL BASIS SET ON ATOM IS LAPW
:E1_0002: E( 1)=    0.3000
             APW+lo
:E1_0002: E( 1)=   -4.1791   E(BOTTOM)=   -4.197   E(TOP)=   -4.161  0  1   161
             LOCAL ORBITAL
:E0_0002: E( 0)=    0.3000
             APW+lo

          ATOMIC SPHERE DEPENDENT PARAMETERS FOR ATOM  Al3       
:e__0003: OVERALL ENERGY PARAMETER IS    0.3000
          OVERALL BASIS SET ON ATOM IS LAPW
:E1_0003: E( 1)=    0.3000
             APW+lo
:E1_0003: E( 1)=   -4.1791   E(BOTTOM)=   -4.197   E(TOP)=   -4.161  0  1   161
             LOCAL ORBITAL
:E0_0003: E( 0)=    0.3000
             APW+lo

          ATOMIC SPHERE DEPENDENT PARAMETERS FOR ATOM  Al4       
:e__0004: OVERALL ENERGY PARAMETER IS    0.3000
          OVERALL BASIS SET ON ATOM IS LAPW
:E1_0004: E( 1)=    0.3000
             APW+lo
:E1_0004: E( 1)=   -4.1791   E(BOTTOM)=   -4.197   E(TOP)=   -4.161  0  1   159
             LOCAL ORBITAL
:E0_0004: E( 0)=    0.3000
             APW+lo

          ATOMIC SPHERE DEPENDENT PARAMETERS FOR ATOM  Al5       
:e__0005: OVERALL ENERGY PARAMETER IS    0.3000
          OVERALL BASIS SET ON ATOM IS LAPW
:E1_0005: E( 1)=    0.3000
             APW+lo
:E1_0005: E( 1)=   -4.1791   E(BOTTOM)=   -4.197   E(TOP)=   -4.161  0  1   162
             LOCAL ORBITAL
:E0_0005: E( 0)=    0.3000
             APW+lo

          ATOMIC SPHERE DEPENDENT PARAMETERS FOR ATOM  Al6       
:e__0006: OVERALL ENERGY PARAMETER IS    0.3000
          OVERALL BASIS SET ON ATOM IS LAPW
:E1_0006: E( 1)=    0.3000
             APW+lo
:E1_0006: E( 1)=   -4.1791   E(BOTTOM)=   -4.197   E(TOP)=   -4.161  0  1   159
             LOCAL ORBITAL
:E0_0006: E( 0)=    0.3000
             APW+lo

          ATOMIC SPHERE DEPENDENT PARAMETERS FOR ATOM  Al7       
:e__0007: OVERALL ENERGY PARAMETER IS    0.3000
          OVERALL BASIS SET ON ATOM IS LAPW
:E1_0007: E( 1)=    0.3000
             APW+lo
:E1_0007: E( 1)=   -4.1791   E(BOTTOM)=   -4.197   E(TOP)=   -4.161  0  1   159
             LOCAL ORBITAL
:E0_0007: E( 0)=    0.3000
             APW+lo

          ATOMIC SPHERE DEPENDENT PARAMETERS FOR ATOM  Al8       
:e__0008: OVERALL ENERGY PARAMETER IS    0.3000
          OVERALL BASIS SET ON ATOM IS LAPW
:E1_0008: E( 1)=    0.3000
             APW+lo
:E1_0008: E( 1)=   -4.1791   E(BOTTOM)=   -4.197   E(TOP)=   -4.161  0  1   159
             LOCAL ORBITAL
:E0_0008: E( 0)=    0.3000
             APW+lo

          ATOMIC SPHERE DEPENDENT PARAMETERS FOR ATOM  Al9       
:e__0009: OVERALL ENERGY PARAMETER IS    0.3000
          OVERALL BASIS SET ON ATOM IS LAPW
:E1_0009: E( 1)=    0.3000
             APW+lo
:E1_0009: E( 1)=   -4.1791   E(BOTTOM)=   -4.197   E(TOP)=   -4.161  0  1   162
             LOCAL ORBITAL
:E0_0009: E( 0)=    0.3000
             APW+lo

          ATOMIC SPHERE DEPENDENT PARAMETERS FOR ATOM  Al10      
:e__0010: OVERALL ENERGY PARAMETER IS    0.3000
          OVERALL BASIS SET ON ATOM IS LAPW
:E1_0010: E( 1)=    0.3000
             APW+lo
:E1_0010: E( 1)=   -4.1791   E(BOTTOM)=   -4.197   E(TOP)=   -4.161  0  1   162
             LOCAL ORBITAL
:E0_0010: E( 0)=    0.3000
             APW+lo

          ATOMIC SPHERE DEPENDENT PARAMETERS FOR ATOM  Al11      
:e__0011: OVERALL ENERGY PARAMETER IS    0.3000
          OVERALL BASIS SET ON ATOM IS LAPW
:E1_0011: E( 1)=    0.3000
             APW+lo
:E1_0011: E( 1)=   -4.1791   E(BOTTOM)=   -4.197   E(TOP)=   -4.161  0  1   162
             LOCAL ORBITAL
:E0_0011: E( 0)=    0.3000
             APW+lo

          ATOMIC SPHERE DEPENDENT PARAMETERS FOR ATOM  Al12      
:e__0012: OVERALL ENERGY PARAMETER IS    0.3000
          OVERALL BASIS SET ON ATOM IS LAPW
:E1_0012: E( 1)=    0.3000
             APW+lo
:E1_0012: E( 1)=   -4.1791   E(BOTTOM)=   -4.197   E(TOP)=   -4.161  0  1   162
             LOCAL ORBITAL
:E0_0012: E( 0)=    0.3000
             APW+lo

          ATOMIC SPHERE DEPENDENT PARAMETERS FOR ATOM  Al13      
:e__0013: OVERALL ENERGY PARAMETER IS    0.3000
          OVERALL BASIS SET ON ATOM IS LAPW
:E1_0013: E( 1)=    0.3000
             APW+lo
:E1_0013: E( 1)=   -4.1791   E(BOTTOM)=   -4.197   E(TOP)=   -4.161  0  1   159
             LOCAL ORBITAL
:E0_0013: E( 0)=    0.3000
             APW+lo

          ATOMIC SPHERE DEPENDENT PARAMETERS FOR ATOM  Al14      
:e__0014: OVERALL ENERGY PARAMETER IS    0.3000
          OVERALL BASIS SET ON ATOM IS LAPW
:E1_0014: E( 1)=    0.3000
             APW+lo
:E1_0014: E( 1)=   -4.1791   E(BOTTOM)=   -4.197   E(TOP)=   -4.161  0  1   159
             LOCAL ORBITAL
:E0_0014: E( 0)=    0.3000
             APW+lo

          ATOMIC SPHERE DEPENDENT PARAMETERS FOR ATOM  Al15      
:e__0015: OVERALL ENERGY PARAMETER IS    0.3000
          OVERALL BASIS SET ON ATOM IS LAPW
:E1_0015: E( 1)=    0.3000
             APW+lo
:E1_0015: E( 1)=   -4.1791   E(BOTTOM)=   -4.197   E(TOP)=   -4.161  0  1   159
             LOCAL ORBITAL
:E0_0015: E( 0)=    0.3000
             APW+lo

          ATOMIC SPHERE DEPENDENT PARAMETERS FOR ATOM  Al16      
:e__0016: OVERALL ENERGY PARAMETER IS    0.3000
          OVERALL BASIS SET ON ATOM IS LAPW
:E1_0016: E( 1)=    0.3000
             APW+lo
:E1_0016: E( 1)=   -4.1791   E(BOTTOM)=   -4.197   E(TOP)=   -4.161  0  1   159
             LOCAL ORBITAL
:E0_0016: E( 0)=    0.3000
             APW+lo

          ATOMIC SPHERE DEPENDENT PARAMETERS FOR ATOM  Al17      
:e__0017: OVERALL ENERGY PARAMETER IS    0.3000
          OVERALL BASIS SET ON ATOM IS LAPW
:E1_0017: E( 1)=    0.3000
             APW+lo
:E1_0017: E( 1)=   -4.1792   E(BOTTOM)=   -4.197   E(TOP)=   -4.161  0  1   163
             LOCAL ORBITAL
:E0_0017: E( 0)=    0.3000
             APW+lo

          ATOMIC SPHERE DEPENDENT PARAMETERS FOR ATOM  Al18      
:e__0018: OVERALL ENERGY PARAMETER IS    0.3000
          OVERALL BASIS SET ON ATOM IS LAPW
:E1_0018: E( 1)=    0.3000
             APW+lo
:E1_0018: E( 1)=   -4.1792   E(BOTTOM)=   -4.197   E(TOP)=   -4.161  0  1   163
             LOCAL ORBITAL
:E0_0018: E( 0)=    0.3000
             APW+lo

          ATOMIC SPHERE DEPENDENT PARAMETERS FOR ATOM  Al19      
:e__0019: OVERALL ENERGY PARAMETER IS    0.3000
          OVERALL BASIS SET ON ATOM IS LAPW
:E1_0019: E( 1)=    0.3000
             APW+lo
:E1_0019: E( 1)=   -4.1791   E(BOTTOM)=   -4.197   E(TOP)=   -4.161  0  1   159
             LOCAL ORBITAL
:E0_0019: E( 0)=    0.3000
             APW+lo

          ATOMIC SPHERE DEPENDENT PARAMETERS FOR ATOM  Al20      
:e__0020: OVERALL ENERGY PARAMETER IS    0.3000
          OVERALL BASIS SET ON ATOM IS LAPW
:E1_0020: E( 1)=    0.3000
             APW+lo
:E1_0020: E( 1)=   -4.1791   E(BOTTOM)=   -4.197   E(TOP)=   -4.161  0  1   159
             LOCAL ORBITAL
:E0_0020: E( 0)=    0.3000
             APW+lo

          ATOMIC SPHERE DEPENDENT PARAMETERS FOR ATOM  Al21      
:e__0021: OVERALL ENERGY PARAMETER IS    0.3000
          OVERALL BASIS SET ON ATOM IS LAPW
:E1_0021: E( 1)=    0.3000
             APW+lo
:E1_0021: E( 1)=   -4.1789   E(BOTTOM)=   -4.197   E(TOP)=   -4.161  0  1   157
             LOCAL ORBITAL
:E0_0021: E( 0)=    0.3000
             APW+lo

          ATOMIC SPHERE DEPENDENT PARAMETERS FOR ATOM  Al22      
:e__0022: OVERALL ENERGY PARAMETER IS    0.3000
          OVERALL BASIS SET ON ATOM IS LAPW
:E1_0022: E( 1)=    0.3000
             APW+lo
:E1_0022: E( 1)=   -4.1789   E(BOTTOM)=   -4.197   E(TOP)=   -4.161  0  1   157
             LOCAL ORBITAL
:E0_0022: E( 0)=    0.3000
             APW+lo

          ATOMIC SPHERE DEPENDENT PARAMETERS FOR ATOM  Al23      
:e__0023: OVERALL ENERGY PARAMETER IS    0.3000
          OVERALL BASIS SET ON ATOM IS LAPW
:E1_0023: E( 1)=    0.3000
             APW+lo
:E1_0023: E( 1)=   -4.1791   E(BOTTOM)=   -4.197   E(TOP)=   -4.161  0  1   159
             LOCAL ORBITAL
:E0_0023: E( 0)=    0.3000
             APW+lo

          ATOMIC SPHERE DEPENDENT PARAMETERS FOR ATOM  Al24      
:e__0024: OVERALL ENERGY PARAMETER IS    0.3000
          OVERALL BASIS SET ON ATOM IS LAPW
:E1_0024: E( 1)=    0.3000
             APW+lo
:E1_0024: E( 1)=   -4.1791   E(BOTTOM)=   -4.197   E(TOP)=   -4.161  0  1   159
             LOCAL ORBITAL
:E0_0024: E( 0)=    0.3000
             APW+lo

          ATOMIC SPHERE DEPENDENT PARAMETERS FOR ATOM  Al25      
:e__0025: OVERALL ENERGY PARAMETER IS    0.3000
          OVERALL BASIS SET ON ATOM IS LAPW
:E1_0025: E( 1)=    0.3000
             APW+lo
:E1_0025: E( 1)=   -4.1792   E(BOTTOM)=   -4.197   E(TOP)=   -4.161  0  1   161
             LOCAL ORBITAL
:E0_0025: E( 0)=    0.3000
             APW+lo

          ATOMIC SPHERE DEPENDENT PARAMETERS FOR ATOM  Al26      
:e__0026: OVERALL ENERGY PARAMETER IS    0.3000
          OVERALL BASIS SET ON ATOM IS LAPW
:E1_0026: E( 1)=    0.3000
             APW+lo
:E1_0026: E( 1)=   -4.1791   E(BOTTOM)=   -4.197   E(TOP)=   -4.161  0  1   159
             LOCAL ORBITAL
:E0_0026: E( 0)=    0.3000
             APW+lo

          ATOMIC SPHERE DEPENDENT PARAMETERS FOR ATOM  Al27      
:e__0027: OVERALL ENERGY PARAMETER IS    0.3000
          OVERALL BASIS SET ON ATOM IS LAPW
:E1_0027: E( 1)=    0.3000
             APW+lo
:E1_0027: E( 1)=   -4.1792   E(BOTTOM)=   -4.197   E(TOP)=   -4.161  0  1   161
             LOCAL ORBITAL
:E0_0027: E( 0)=    0.3000
             APW+lo

          ATOMIC SPHERE DEPENDENT PARAMETERS FOR ATOM  Al28      
:e__0028: OVERALL ENERGY PARAMETER IS    0.3000
          OVERALL BASIS SET ON ATOM IS LAPW
:E1_0028: E( 1)=    0.3000
             APW+lo
:E1_0028: E( 1)=   -4.1791   E(BOTTOM)=   -4.197   E(TOP)=   -4.161  0  1   159
             LOCAL ORBITAL
:E0_0028: E( 0)=    0.3000
             APW+lo

          ATOMIC SPHERE DEPENDENT PARAMETERS FOR ATOM  Al29      
:e__0029: OVERALL ENERGY PARAMETER IS    0.3000
          OVERALL BASIS SET ON ATOM IS LAPW
:E1_0029: E( 1)=    0.3000
             APW+lo
:E1_0029: E( 1)=   -4.1789   E(BOTTOM)=   -4.197   E(TOP)=   -4.161  0  1   155
             LOCAL ORBITAL
:E0_0029: E( 0)=    0.3000
             APW+lo

          ATOMIC SPHERE DEPENDENT PARAMETERS FOR ATOM  Al30      
:e__0030: OVERALL ENERGY PARAMETER IS    0.3000
          OVERALL BASIS SET ON ATOM IS LAPW
:E1_0030: E( 1)=    0.3000
             APW+lo
:E1_0030: E( 1)=   -4.1791   E(BOTTOM)=   -4.197   E(TOP)=   -4.161  0  1   160
             LOCAL ORBITAL
:E0_0030: E( 0)=    0.3000
             APW+lo

          ATOMIC SPHERE DEPENDENT PARAMETERS FOR ATOM  Al31      
:e__0031: OVERALL ENERGY PARAMETER IS    0.3000
          OVERALL BASIS SET ON ATOM IS LAPW
:E1_0031: E( 1)=    0.3000
             APW+lo
:E1_0031: E( 1)=   -4.1789   E(BOTTOM)=   -4.197   E(TOP)=   -4.161  0  1   155
             LOCAL ORBITAL
:E0_0031: E( 0)=    0.3000
             APW+lo

          ATOMIC SPHERE DEPENDENT PARAMETERS FOR ATOM  Al32      
:e__0032: OVERALL ENERGY PARAMETER IS    0.3000
          OVERALL BASIS SET ON ATOM IS LAPW
:E1_0032: E( 1)=    0.3000
             APW+lo
:E1_0032: E( 1)=   -4.1791   E(BOTTOM)=   -4.197   E(TOP)=   -4.161  0  1   160
             LOCAL ORBITAL
:E0_0032: E( 0)=    0.3000
             APW+lo

       K=   0.16667   0.16667   0.16667            1
:RKM  : MATRIX SIZE  2105LOs: 224  RKM= 6.96  WEIGHT= 2.00  PGR:    
       EIGENVALUES ARE:
:EIG00001:      -4.1758951   -4.1758906   -4.1758876   -4.1758337   -4.1758313
:EIG00006:      -4.1758311   -4.1758248   -4.1756036   -4.1755862   -4.1755576
:EIG00011:      -4.1755263   -4.1755248   -4.1755172   -4.1755158   -4.1754996
:EIG00016:      -4.1754965   -4.1754962   -4.1754867   -4.1754787   -4.1754715
:EIG00021:      -4.1754694   -4.1754624   -4.1753189   -4.1753182   -4.1753103
:EIG00026:      -4.1752558   -4.1752520   -4.1752397   -4.1752296   -4.1752255
:EIG00031:      -4.1752225   -4.1752092   -4.1752011   -4.1751994   -4.1750992
:EIG00036:      -4.1750968   -4.1750828   -4.1749476   -4.1749414   -4.1749316
:EIG00041:      -4.1749307   -4.1749207   -4.1749120   -4.1749067   -4.1748988
:EIG00046:      -4.1748961   -4.1748885   -4.1748793   -4.1748758   -4.1748512

:EIG00051:      -4.1748378   -4.1748341   -4.1748288   -4.1748276   -4.1748238
:EIG00056:      -4.1748219   -4.1748068   -4.1747771   -4.1747120   -4.1746982
:EIG00061:      -4.1746883   -4.1746377   -4.1746328   -4.1746267   -4.1746067
:EIG00066:      -4.1745968   -4.1745829   -4.1745823   -4.1745636   -4.1745582
:EIG00071:      -4.1745513   -4.1745450   -4.1745405   -4.1745235   -4.1745209
:EIG00076:      -4.1745159   -4.1745144   -4.1745045   -4.1744827   -4.1744790
:EIG00081:      -4.1744737   -4.1744649   -4.1744636   -4.1744598   -4.1744560
:EIG00086:      -4.1744465   -4.1744338   -4.1744303   -4.1744233   -4.1744167
:EIG00091:      -4.1743955   -4.1743905   -4.1743620   -4.1743167   -4.1742209
:EIG00096:      -4.1742179   -0.2736095   -0.1632662   -0.1630910   -0.1629189

:EIG00101:      -0.0541550   -0.0538568   -0.0538561   -0.0537630   -0.0537618
:EIG00106:      -0.0534671    0.0539864    0.0541725    0.0542612    0.0542978
:EIG00111:       0.0543796    0.0544219    0.0546292    0.1608116    0.1609097
:EIG00116:       0.1609578    0.1610868    0.1612181    0.1613995    0.2614421
:EIG00121:       0.2614953    0.2615521    0.2688745    0.2689351    0.2689952
:EIG00126:       0.3647202    0.3648525    0.3649928    0.3649931    0.3651326
:EIG00131:       0.3652632    0.3737169    0.4690867    0.4691166    0.4692631
:EIG00136:       0.4692681    0.4693945    0.4694326    0.4702648    0.4704404
:EIG00141:       0.4706140    0.4943524    0.4944114    0.4944715    0.5734816
:EIG00146:       0.5735553    0.5736662    0.5736666    0.5737771    0.5738499

:EIG00151:       0.5978648    0.5979393    0.5980480    0.5980483    0.5981574
:EIG00156:       0.5982311    0.6765606    0.6766278    0.6766954    0.7066772
:EIG00161:       0.7067335    0.7067935    0.7152503    0.7153047    0.7154263
:EIG00166:       0.7154266    0.7155496    0.7156032    0.7739264    0.7739976
:EIG00171:       0.7740684    0.8082457    0.8082880    0.8084017    0.8084022
:EIG00176:       0.8085156    0.8085576    0.8745269    0.8747195    0.8749121
:EIG00181:       0.9092693    0.9094390    0.9096090    0.9570135    0.9570163
:EIG00186:       0.9570177    0.9766142    0.9766610    0.9767068    1.0023065
:EIG00191:       1.0023621    1.0024186    1.0379295    1.0380026    1.0380751
:EIG00196:       1.0516469    1.0517468    1.0518431    1.1028916    1.1029252

:EIG00201:       1.1030440    1.1030443    1.1031621    1.1031941    1.1425455
:EIG00206:       1.1426116    1.1426882    1.1462100    1.1463070    1.1464052
:EIG00211:       1.1479231    1.1480225    1.1481157    1.1952174    1.1952929
:EIG00216:       1.1953683    1.2398407    1.2400045    1.2401673    1.2437632
:EIG00221:       1.2437657    1.2437667    1.2692884    1.2849727    1.2851140
:EIG00226:       1.2852495    1.2886454    1.2886553    1.2886665    1.3029622
:EIG00231:       1.3030390    1.3031188    1.3390563    1.3391510    1.3392383
:EIG00236:       1.3396979    1.3397021    1.3650842    1.3651192    1.3651541
:EIG00241:       1.3831025    1.3832461    1.3833899    1.4210208    1.4210222
:EIG00246:       1.4357759    1.4357781    1.4694167    1.4695941    1.4697699

:EIG00251:       1.4850090    1.4851442    1.4852782    1.5063120    1.5063245
:EIG00256:       1.5064655    1.5064667    1.5066077    1.5066222    1.5216606
:EIG00261:       1.5217300    1.5218438    1.5218447    1.5219553    1.5220262
:EIG00266:       1.5324818    1.5324846    1.5324874    1.5989768    1.5991617
:EIG00271:       1.5992772    1.5992774    1.5993938    1.5995789    1.6055907
:EIG00276:       1.6222113    1.6245909    1.6246992    1.6247920    1.6396715
:EIG00281:       1.6396748    1.7201866    1.7202979    1.7203652    1.7204273
:EIG00286:       1.7204910    1.7205450    1.7206505    1.7551795    1.7552062
:EIG00291:       1.7552302    1.7793774    1.7794652    1.7795475    1.8028263
:EIG00296:       1.8030381    1.8032442    1.8129814    1.8130438    1.8131298

:EIG00301:       1.8131337    1.8132077    1.8132844    1.8165632    1.8166953
:EIG00306:       1.8167501    1.8167545    1.8168100    1.8169331    1.8219525
:EIG00311:       1.8220976    1.8222448    1.8314340    1.8315617    1.8316878
:EIG00316:       1.8762608    1.8974512    1.8974560    1.9717221    1.9717747
:EIG00321:       1.9718206    1.9823300    1.9824116    1.9824875    1.9899461
:EIG00326:       1.9901444    1.9903491
       ********************************************************

:KPT   :      NUMBER OF K-POINTS:    14
:GAP (global)   :    0.0    Ry =     0.0   eV (metal)
         Bandranges (emin - emax) and occupancy:
:BAN00143: 143    0.476383    0.545898  1.77020181
:BAN00144: 144    0.476395    0.545982  1.77031198
:BAN00145: 145    0.476420    0.573482  0.19251506
:BAN00146: 146    0.476420    0.573555  0.19027971
:BAN00147: 147    0.476431    0.573666  0.18640210
:BAN00148: 148    0.476446    0.573667  0.18376101
:BAN00149: 149    0.476624    0.640467  0.01666756
:BAN00150: 150    0.476771    0.640467  0.01654234
:BAN00151: 151    0.476915    0.640513  0.01487808
:BAN00152: 152    0.476916    0.640513  0.01487650
:BAN00153: 153    0.598048    0.785151 -0.00098839
:BAN00154: 154    0.598048    0.785157  0.00000000
:BAN00155: 155    0.598157    0.785157  0.00000000
:BAN00156: 156    0.598231    0.785222  0.00000000
:BAN00157: 157    0.649163    0.785303  0.00000000
:BAN00158: 158    0.649248    0.785374  0.00000000
        Energy to separate low and high energystates:   -0.32361


:NOE  : NUMBER OF ELECTRONS          = 288.000

:FER  : F E R M I - ENERGY(TETRAH.M.)=   0.5298388207
:GMA  : POTENTIAL AND CHARGE CUT-OFF  12.00 Ry**.5




:POS001: ATOM   -1 X,Y,Z = 0.00124 0.00000 0.00000  MULT= 1  ZZ= 13.000  Al1       

       LMMAX 49


:CHA001: TOTAL VALENCE CHARGE INSIDE SPHERE   1 =   7.2366    (RMT=  2.2200 )
:PCS001: PARTIAL CHARGES SPHERE =  1 S,P,D,F,PX,PY,PZ,D-Z2,D-X2Y2,D-XY,D-XZ,D-YZ 
:QTL001: 0.5969 6.5401 0.0947 0.0046 2.1801 2.1800 2.1800 0.0132 0.0132 0.0227 0.0227 0.0228
        Q-s-low E-s-low   Q-p-low E-p-low   Q-d-low E-d-low   Q-f-low E-f-low
:EPL001:  0.0000 10.0000    5.9948 -4.1750    0.0000 10.0000    0.0000 10.0000
        Q-s-hi  E-s-hi    Q-p-hi  E-p-hi    Q-d-hi  E-d-hi    Q-f-hi  E-f-hi 
:EPH001:  0.5969  0.1224    0.5453  0.2726    0.0947  0.3514    0.0046  0.3632

                      QXX         QXY         QYY         QZZ       UP TO R
:VZZ001:            -0.00037     0.00214     0.00018     0.00020       2.220




:POS002: ATOM   -2 X,Y,Z = 0.00000 0.00000 0.50000  MULT= 1  ZZ= 13.000  Al2       

       LMMAX 49


:CHA002: TOTAL VALENCE CHARGE INSIDE SPHERE   2 =   7.2398    (RMT=  2.2200 )
:PCS002: PARTIAL CHARGES SPHERE =  2 S,P,D,F,PX,PY,PZ,D-Z2,D-X2Y2,D-XY,D-XZ,D-YZ 
:QTL002: 0.5966 6.5428 0.0955 0.0046 2.1814 2.1808 2.1805 0.0132 0.0132 0.0232 0.0229 0.0229
        Q-s-low E-s-low   Q-p-low E-p-low   Q-d-low E-d-low   Q-f-low E-f-low
:EPL002:  0.0000 10.0000    5.9948 -4.1750    0.0000 10.0000    0.0000 10.0000
        Q-s-hi  E-s-hi    Q-p-hi  E-p-hi    Q-d-hi  E-d-hi    Q-f-hi  E-f-hi 
:EPH002:  0.5966  0.1224    0.5480  0.2736    0.0955  0.3523    0.0046  0.3637

                      QXX         QXY         QYY         QZZ       UP TO R
:VZZ002:            -0.03496     0.00314     0.00833     0.02663       2.220




:POS003: ATOM   -3 X,Y,Z = 0.00000 0.50000 0.00000  MULT= 1  ZZ= 13.000  Al3       

       LMMAX 49


:CHA003: TOTAL VALENCE CHARGE INSIDE SPHERE   3 =   7.2398    (RMT=  2.2200 )
:PCS003: PARTIAL CHARGES SPHERE =  3 S,P,D,F,PX,PY,PZ,D-Z2,D-X2Y2,D-XY,D-XZ,D-YZ 
:QTL003: 0.5966 6.5428 0.0955 0.0046 2.1814 2.1805 2.1808 0.0132 0.0132 0.0229 0.0232 0.0229
        Q-s-low E-s-low   Q-p-low E-p-low   Q-d-low E-d-low   Q-f-low E-f-low
:EPL003:  0.0000 10.0000    5.9948 -4.1750    0.0000 10.0000    0.0000 10.0000
        Q-s-hi  E-s-hi    Q-p-hi  E-p-hi    Q-d-hi  E-d-hi    Q-f-hi  E-f-hi 
:EPH003:  0.5966  0.1224    0.5480  0.2736    0.0955  0.3523    0.0046  0.3637

                      QXX         QXY         QYY         QZZ       UP TO R
:VZZ003:            -0.03500     0.00430     0.02661     0.00839       2.220




:POS004: ATOM   -4 X,Y,Z = 0.00000 0.50000 0.50000  MULT= 1  ZZ= 13.000  Al4       

       LMMAX 49


:CHA004: TOTAL VALENCE CHARGE INSIDE SPHERE   4 =   7.2409    (RMT=  2.2200 )
:PCS004: PARTIAL CHARGES SPHERE =  4 S,P,D,F,PX,PY,PZ,D-Z2,D-X2Y2,D-XY,D-XZ,D-YZ 
:QTL004: 0.5980 6.5427 0.0953 0.0046 2.1809 2.1809 2.1809 0.0132 0.0132 0.0230 0.0230 0.0228
        Q-s-low E-s-low   Q-p-low E-p-low   Q-d-low E-d-low   Q-f-low E-f-low
:EPL004:  0.0000 10.0000    5.9948 -4.1750    0.0000 10.0000    0.0000 10.0000
        Q-s-hi  E-s-hi    Q-p-hi  E-p-hi    Q-d-hi  E-d-hi    Q-f-hi  E-f-hi 
:EPH004:  0.5980  0.1232    0.5479  0.2735    0.0953  0.3521    0.0046  0.3638

                      QXX         QXY         QYY         QZZ       UP TO R
:VZZ004:            -0.00246     0.00513     0.00120     0.00126       2.220




:POS005: ATOM   -5 X,Y,Z = 0.50000 0.00000 0.00000  MULT= 1  ZZ= 13.000  Al5       

       LMMAX 49


:CHA005: TOTAL VALENCE CHARGE INSIDE SPHERE   5 =   7.2413    (RMT=  2.2200 )
:PCS005: PARTIAL CHARGES SPHERE =  5 S,P,D,F,PX,PY,PZ,D-Z2,D-X2Y2,D-XY,D-XZ,D-YZ 
:QTL005: 0.5968 6.5438 0.0959 0.0046 2.1815 2.1812 2.1812 0.0132 0.0132 0.0231 0.0231 0.0232
        Q-s-low E-s-low   Q-p-low E-p-low   Q-d-low E-d-low   Q-f-low E-f-low
:EPL005:  0.0000 10.0000    5.9948 -4.1750    0.0000 10.0000    0.0000 10.0000
        Q-s-hi  E-s-hi    Q-p-hi  E-p-hi    Q-d-hi  E-d-hi    Q-f-hi  E-f-hi 
:EPH005:  0.5968  0.1224    0.5490  0.2740    0.0959  0.3528    0.0046  0.3635

                      QXX         QXY         QYY         QZZ       UP TO R
:VZZ005:            -0.01466     0.00494     0.00733     0.00733       2.220




:POS006: ATOM   -6 X,Y,Z = 0.50000 0.00000 0.50000  MULT= 1  ZZ= 13.000  Al6       

       LMMAX 49


:CHA006: TOTAL VALENCE CHARGE INSIDE SPHERE   6 =   7.2419    (RMT=  2.2200 )
:PCS006: PARTIAL CHARGES SPHERE =  6 S,P,D,F,PX,PY,PZ,D-Z2,D-X2Y2,D-XY,D-XZ,D-YZ 
:QTL006: 0.5981 6.5433 0.0956 0.0046 2.1817 2.1805 2.1811 0.0132 0.0132 0.0231 0.0231 0.0230
        Q-s-low E-s-low   Q-p-low E-p-low   Q-d-low E-d-low   Q-f-low E-f-low
:EPL006:  0.0000 10.0000    5.9948 -4.1750    0.0000 10.0000    0.0000 10.0000
        Q-s-hi  E-s-hi    Q-p-hi  E-p-hi    Q-d-hi  E-d-hi    Q-f-hi  E-f-hi 
:EPH006:  0.5981  0.1233    0.5485  0.2738    0.0956  0.3524    0.0046  0.3641

                      QXX         QXY         QYY         QZZ       UP TO R
:VZZ006:            -0.04059     0.00427     0.04144    -0.00085       2.220




:POS007: ATOM   -7 X,Y,Z = 0.50000 0.50000 0.00000  MULT= 1  ZZ= 13.000  Al7       

       LMMAX 49


:CHA007: TOTAL VALENCE CHARGE INSIDE SPHERE   7 =   7.2419    (RMT=  2.2200 )
:PCS007: PARTIAL CHARGES SPHERE =  7 S,P,D,F,PX,PY,PZ,D-Z2,D-X2Y2,D-XY,D-XZ,D-YZ 
:QTL007: 0.5981 6.5433 0.0956 0.0046 2.1817 2.1811 2.1805 0.0132 0.0133 0.0231 0.0231 0.0230
        Q-s-low E-s-low   Q-p-low E-p-low   Q-d-low E-d-low   Q-f-low E-f-low
:EPL007:  0.0000 10.0000    5.9948 -4.1750    0.0000 10.0000    0.0000 10.0000
        Q-s-hi  E-s-hi    Q-p-hi  E-p-hi    Q-d-hi  E-d-hi    Q-f-hi  E-f-hi 
:EPH007:  0.5981  0.1233    0.5485  0.2738    0.0956  0.3524    0.0046  0.3641

                      QXX         QXY         QYY         QZZ       UP TO R
:VZZ007:            -0.04061     0.00281    -0.00081     0.04142       2.220




:POS008: ATOM   -8 X,Y,Z = 0.50000 0.50000 0.50000  MULT= 1  ZZ= 13.000  Al8       

       LMMAX 49


:CHA008: TOTAL VALENCE CHARGE INSIDE SPHERE   8 =   7.2390    (RMT=  2.2200 )
:PCS008: PARTIAL CHARGES SPHERE =  8 S,P,D,F,PX,PY,PZ,D-Z2,D-X2Y2,D-XY,D-XZ,D-YZ 
:QTL008: 0.5950 6.5434 0.0957 0.0046 2.1818 2.1808 2.1808 0.0133 0.0133 0.0231 0.0231 0.0230
        Q-s-low E-s-low   Q-p-low E-p-low   Q-d-low E-d-low   Q-f-low E-f-low
:EPL008:  0.0000 10.0000    5.9948 -4.1750    0.0000 10.0000    0.0000 10.0000
        Q-s-hi  E-s-hi    Q-p-hi  E-p-hi    Q-d-hi  E-d-hi    Q-f-hi  E-f-hi 
:EPH008:  0.5950  0.1213    0.5486  0.2738    0.0957  0.3528    0.0046  0.3636

                      QXX         QXY         QYY         QZZ       UP TO R
:VZZ008:            -0.04626     0.00250     0.02311     0.02314       2.220




:POS009: ATOM   -9 X,Y,Z = 0.00000 0.25000 0.25000  MULT= 1  ZZ= 13.000  Al9       

       LMMAX 49


:CHA009: TOTAL VALENCE CHARGE INSIDE SPHERE   9 =   7.2395    (RMT=  2.2200 )
:PCS009: PARTIAL CHARGES SPHERE =  9 S,P,D,F,PX,PY,PZ,D-Z2,D-X2Y2,D-XY,D-XZ,D-YZ 
:QTL009: 0.5972 6.5423 0.0951 0.0046 2.1809 2.1807 2.1807 0.0132 0.0132 0.0229 0.0229 0.0228
        Q-s-low E-s-low   Q-p-low E-p-low   Q-d-low E-d-low   Q-f-low E-f-low
:EPL009:  0.0000 10.0000    5.9948 -4.1750    0.0000 10.0000    0.0000 10.0000
        Q-s-hi  E-s-hi    Q-p-hi  E-p-hi    Q-d-hi  E-d-hi    Q-f-hi  E-f-hi 
:EPH009:  0.5972  0.1227    0.5475  0.2734    0.0951  0.3517    0.0046  0.3634

                      QXX         QXY         QYY         QZZ       UP TO R
:VZZ009:            -0.00998     0.01083     0.00495     0.00503       2.220




:POS010: ATOM  -10 X,Y,Z = 0.00000 0.25000 0.75000  MULT= 1  ZZ= 13.000  Al10      

       LMMAX 49


:CHA010: TOTAL VALENCE CHARGE INSIDE SPHERE  10 =   7.2398    (RMT=  2.2200 )
:PCS010: PARTIAL CHARGES SPHERE = 10 S,P,D,F,PX,PY,PZ,D-Z2,D-X2Y2,D-XY,D-XZ,D-YZ 
:QTL010: 0.5974 6.5424 0.0951 0.0046 2.1809 2.1807 2.1807 0.0132 0.0132 0.0229 0.0230 0.0228
        Q-s-low E-s-low   Q-p-low E-p-low   Q-d-low E-d-low   Q-f-low E-f-low
:EPL010:  0.0000 10.0000    5.9948 -4.1750    0.0000 10.0000    0.0000 10.0000
        Q-s-hi  E-s-hi    Q-p-hi  E-p-hi    Q-d-hi  E-d-hi    Q-f-hi  E-f-hi 
:EPH010:  0.5974  0.1228    0.5476  0.2735    0.0951  0.3518    0.0046  0.3636

                      QXX         QXY         QYY         QZZ       UP TO R
:VZZ010:            -0.00784     0.01287     0.00279     0.00505       2.220




:POS011: ATOM  -11 X,Y,Z = 0.00000 0.75000 0.25000  MULT= 1  ZZ= 13.000  Al11      

       LMMAX 49


:CHA011: TOTAL VALENCE CHARGE INSIDE SPHERE  11 =   7.2398    (RMT=  2.2200 )
:PCS011: PARTIAL CHARGES SPHERE = 11 S,P,D,F,PX,PY,PZ,D-Z2,D-X2Y2,D-XY,D-XZ,D-YZ 
:QTL011: 0.5974 6.5424 0.0951 0.0046 2.1809 2.1807 2.1807 0.0132 0.0132 0.0230 0.0229 0.0228
        Q-s-low E-s-low   Q-p-low E-p-low   Q-d-low E-d-low   Q-f-low E-f-low
:EPL011:  0.0000 10.0000    5.9948 -4.1750    0.0000 10.0000    0.0000 10.0000
        Q-s-hi  E-s-hi    Q-p-hi  E-p-hi    Q-d-hi  E-d-hi    Q-f-hi  E-f-hi 
:EPH011:  0.5974  0.1228    0.5476  0.2735    0.0951  0.3518    0.0046  0.3636

                      QXX         QXY         QYY         QZZ       UP TO R
:VZZ011:            -0.00784    -0.00591     0.00498     0.00285       2.220




:POS012: ATOM  -12 X,Y,Z = 0.00000 0.75000 0.75000  MULT= 1  ZZ= 13.000  Al12      

       LMMAX 49


:CHA012: TOTAL VALENCE CHARGE INSIDE SPHERE  12 =   7.2400    (RMT=  2.2200 )
:PCS012: PARTIAL CHARGES SPHERE = 12 S,P,D,F,PX,PY,PZ,D-Z2,D-X2Y2,D-XY,D-XZ,D-YZ 
:QTL012: 0.5975 6.5424 0.0952 0.0046 2.1809 2.1807 2.1807 0.0132 0.0132 0.0230 0.0230 0.0228
        Q-s-low E-s-low   Q-p-low E-p-low   Q-d-low E-d-low   Q-f-low E-f-low
:EPL012:  0.0000 10.0000    5.9948 -4.1750    0.0000 10.0000    0.0000 10.0000
        Q-s-hi  E-s-hi    Q-p-hi  E-p-hi    Q-d-hi  E-d-hi    Q-f-hi  E-f-hi 
:EPH012:  0.5975  0.1229    0.5476  0.2735    0.0952  0.3520    0.0046  0.3636

                      QXX         QXY         QYY         QZZ       UP TO R
:VZZ012:            -0.00733    -0.00293     0.00363     0.00370       2.220




:POS013: ATOM  -13 X,Y,Z = 0.50000 0.25000 0.25000  MULT= 1  ZZ= 13.000  Al13      

       LMMAX 49


:CHA013: TOTAL VALENCE CHARGE INSIDE SPHERE  13 =   7.2417    (RMT=  2.2200 )
:PCS013: PARTIAL CHARGES SPHERE = 13 S,P,D,F,PX,PY,PZ,D-Z2,D-X2Y2,D-XY,D-XZ,D-YZ 
:QTL013: 0.5974 6.5437 0.0957 0.0046 2.1816 2.1811 2.1811 0.0132 0.0132 0.0231 0.0231 0.0230
        Q-s-low E-s-low   Q-p-low E-p-low   Q-d-low E-d-low   Q-f-low E-f-low
:EPL013:  0.0000 10.0000    5.9948 -4.1750    0.0000 10.0000    0.0000 10.0000
        Q-s-hi  E-s-hi    Q-p-hi  E-p-hi    Q-d-hi  E-d-hi    Q-f-hi  E-f-hi 
:EPH013:  0.5974  0.1228    0.5489  0.2740    0.0957  0.3526    0.0046  0.3639

                      QXX         QXY         QYY         QZZ       UP TO R
:VZZ013:            -0.02439     0.03398     0.01218     0.01222       2.220




:POS014: ATOM  -14 X,Y,Z = 0.50000 0.25000 0.75000  MULT= 1  ZZ= 13.000  Al14      

       LMMAX 49


:CHA014: TOTAL VALENCE CHARGE INSIDE SPHERE  14 =   7.2414    (RMT=  2.2200 )
:PCS014: PARTIAL CHARGES SPHERE = 14 S,P,D,F,PX,PY,PZ,D-Z2,D-X2Y2,D-XY,D-XZ,D-YZ 
:QTL014: 0.5973 6.5437 0.0956 0.0046 2.1816 2.1810 2.1811 0.0132 0.0132 0.0231 0.0231 0.0230
        Q-s-low E-s-low   Q-p-low E-p-low   Q-d-low E-d-low   Q-f-low E-f-low
:EPL014:  0.0000 10.0000    5.9948 -4.1750    0.0000 10.0000    0.0000 10.0000
        Q-s-hi  E-s-hi    Q-p-hi  E-p-hi    Q-d-hi  E-d-hi    Q-f-hi  E-f-hi 
:EPH014:  0.5973  0.1228    0.5489  0.2739    0.0956  0.3524    0.0046  0.3639

                      QXX         QXY         QYY         QZZ       UP TO R
:VZZ014:            -0.02498     0.03060     0.01375     0.01123       2.220




:POS015: ATOM  -15 X,Y,Z = 0.50000 0.75000 0.25000  MULT= 1  ZZ= 13.000  Al15      

       LMMAX 49


:CHA015: TOTAL VALENCE CHARGE INSIDE SPHERE  15 =   7.2414    (RMT=  2.2200 )
:PCS015: PARTIAL CHARGES SPHERE = 15 S,P,D,F,PX,PY,PZ,D-Z2,D-X2Y2,D-XY,D-XZ,D-YZ 
:QTL015: 0.5973 6.5437 0.0956 0.0046 2.1816 2.1811 2.1810 0.0132 0.0132 0.0231 0.0231 0.0230
        Q-s-low E-s-low   Q-p-low E-p-low   Q-d-low E-d-low   Q-f-low E-f-low
:EPL015:  0.0000 10.0000    5.9948 -4.1750    0.0000 10.0000    0.0000 10.0000
        Q-s-hi  E-s-hi    Q-p-hi  E-p-hi    Q-d-hi  E-d-hi    Q-f-hi  E-f-hi 
:EPH015:  0.5973  0.1228    0.5489  0.2739    0.0956  0.3524    0.0046  0.3639

                      QXX         QXY         QYY         QZZ       UP TO R
:VZZ015:            -0.02499    -0.02391     0.01120     0.01378       2.220




:POS016: ATOM  -16 X,Y,Z = 0.50000 0.75000 0.75000  MULT= 1  ZZ= 13.000  Al16      

       LMMAX 49


:CHA016: TOTAL VALENCE CHARGE INSIDE SPHERE  16 =   7.2411    (RMT=  2.2200 )
:PCS016: PARTIAL CHARGES SPHERE = 16 S,P,D,F,PX,PY,PZ,D-Z2,D-X2Y2,D-XY,D-XZ,D-YZ 
:QTL016: 0.5971 6.5436 0.0955 0.0046 2.1816 2.1810 2.1810 0.0132 0.0132 0.0230 0.0230 0.0230
        Q-s-low E-s-low   Q-p-low E-p-low   Q-d-low E-d-low   Q-f-low E-f-low
:EPL016:  0.0000 10.0000    5.9948 -4.1750    0.0000 10.0000    0.0000 10.0000
        Q-s-hi  E-s-hi    Q-p-hi  E-p-hi    Q-d-hi  E-d-hi    Q-f-hi  E-f-hi 
:EPH016:  0.5971  0.1226    0.5488  0.2739    0.0955  0.3523    0.0046  0.3637

                      QXX         QXY         QYY         QZZ       UP TO R
:VZZ016:            -0.02786    -0.02574     0.01391     0.01395       2.220




:POS017: ATOM  -17 X,Y,Z = 0.25000 0.00000 0.25000  MULT= 1  ZZ= 13.000  Al17      

       LMMAX 49


:CHA017: TOTAL VALENCE CHARGE INSIDE SPHERE  17 =   7.2412    (RMT=  2.2200 )
:PCS017: PARTIAL CHARGES SPHERE = 17 S,P,D,F,PX,PY,PZ,D-Z2,D-X2Y2,D-XY,D-XZ,D-YZ 
:QTL017: 0.5971 6.5435 0.0958 0.0046 2.1816 2.1806 2.1813 0.0133 0.0132 0.0230 0.0232 0.0230
        Q-s-low E-s-low   Q-p-low E-p-low   Q-d-low E-d-low   Q-f-low E-f-low
:EPL017:  0.0000 10.0000    5.9948 -4.1751    0.0000 10.0000    0.0000 10.0000
        Q-s-hi  E-s-hi    Q-p-hi  E-p-hi    Q-d-hi  E-d-hi    Q-f-hi  E-f-hi 
:EPH017:  0.5971  0.1222    0.5487  0.2733    0.0958  0.3522    0.0046  0.3637

                      QXX         QXY         QYY         QZZ       UP TO R
:VZZ017:            -0.03074    -0.00289     0.03885    -0.00811       2.220




:POS018: ATOM  -18 X,Y,Z = 0.25000 0.00000 0.75000  MULT= 1  ZZ= 13.000  Al18      

       LMMAX 49


:CHA018: TOTAL VALENCE CHARGE INSIDE SPHERE  18 =   7.2412    (RMT=  2.2200 )
:PCS018: PARTIAL CHARGES SPHERE = 18 S,P,D,F,PX,PY,PZ,D-Z2,D-X2Y2,D-XY,D-XZ,D-YZ 
:QTL018: 0.5972 6.5434 0.0958 0.0046 2.1816 2.1806 2.1813 0.0133 0.0132 0.0230 0.0232 0.0230
        Q-s-low E-s-low   Q-p-low E-p-low   Q-d-low E-d-low   Q-f-low E-f-low
:EPL018:  0.0000 10.0000    5.9948 -4.1751    0.0000 10.0000    0.0000 10.0000
        Q-s-hi  E-s-hi    Q-p-hi  E-p-hi    Q-d-hi  E-d-hi    Q-f-hi  E-f-hi 
:EPH018:  0.5972  0.1222    0.5486  0.2733    0.0958  0.3522    0.0046  0.3637

                      QXX         QXY         QYY         QZZ       UP TO R
:VZZ018:            -0.02939    -0.00371     0.03833    -0.00894       2.220




:POS019: ATOM  -19 X,Y,Z = 0.25000 0.50000 0.25000  MULT= 1  ZZ= 13.000  Al19      

       LMMAX 49


:CHA019: TOTAL VALENCE CHARGE INSIDE SPHERE  19 =   7.2416    (RMT=  2.2200 )
:PCS019: PARTIAL CHARGES SPHERE = 19 S,P,D,F,PX,PY,PZ,D-Z2,D-X2Y2,D-XY,D-XZ,D-YZ 
:QTL019: 0.5974 6.5437 0.0956 0.0046 2.1814 2.1808 2.1814 0.0132 0.0132 0.0231 0.0231 0.0230
        Q-s-low E-s-low   Q-p-low E-p-low   Q-d-low E-d-low   Q-f-low E-f-low
:EPL019:  0.0000 10.0000    5.9948 -4.1750    0.0000 10.0000    0.0000 10.0000
        Q-s-hi  E-s-hi    Q-p-hi  E-p-hi    Q-d-hi  E-d-hi    Q-f-hi  E-f-hi 
:EPH019:  0.5974  0.1228    0.5489  0.2739    0.0956  0.3527    0.0046  0.3640

                      QXX         QXY         QYY         QZZ       UP TO R
:VZZ019:            -0.01434     0.01185     0.02729    -0.01295       2.220




:POS020: ATOM  -20 X,Y,Z = 0.25000 0.50000 0.75000  MULT= 1  ZZ= 13.000  Al20      

       LMMAX 49


:CHA020: TOTAL VALENCE CHARGE INSIDE SPHERE  20 =   7.2416    (RMT=  2.2200 )
:PCS020: PARTIAL CHARGES SPHERE = 20 S,P,D,F,PX,PY,PZ,D-Z2,D-X2Y2,D-XY,D-XZ,D-YZ 
:QTL020: 0.5975 6.5436 0.0956 0.0046 2.1814 2.1808 2.1814 0.0132 0.0132 0.0231 0.0231 0.0229
        Q-s-low E-s-low   Q-p-low E-p-low   Q-d-low E-d-low   Q-f-low E-f-low
:EPL020:  0.0000 10.0000    5.9948 -4.1750    0.0000 10.0000    0.0000 10.0000
        Q-s-hi  E-s-hi    Q-p-hi  E-p-hi    Q-d-hi  E-d-hi    Q-f-hi  E-f-hi 
:EPH020:  0.5975  0.1229    0.5488  0.2739    0.0956  0.3526    0.0046  0.3641

                      QXX         QXY         QYY         QZZ       UP TO R
:VZZ020:            -0.01296     0.01059     0.02658    -0.01362       2.220




:POS021: ATOM  -21 X,Y,Z = 0.75000 0.00000 0.25000  MULT= 1  ZZ= 13.000  Al21      

       LMMAX 49


:CHA021: TOTAL VALENCE CHARGE INSIDE SPHERE  21 =   7.2382    (RMT=  2.2200 )
:PCS021: PARTIAL CHARGES SPHERE = 21 S,P,D,F,PX,PY,PZ,D-Z2,D-X2Y2,D-XY,D-XZ,D-YZ 
:QTL021: 0.5970 6.5413 0.0950 0.0046 2.1807 2.1806 2.1800 0.0131 0.0132 0.0231 0.0228 0.0228
        Q-s-low E-s-low   Q-p-low E-p-low   Q-d-low E-d-low   Q-f-low E-f-low
:EPL021:  0.0000 10.0000    5.9948 -4.1748    0.0000 10.0000    0.0000 10.0000
        Q-s-hi  E-s-hi    Q-p-hi  E-p-hi    Q-d-hi  E-d-hi    Q-f-hi  E-f-hi 
:EPH021:  0.5970  0.1230    0.5465  0.2735    0.0950  0.3522    0.0046  0.3638

                      QXX         QXY         QYY         QZZ       UP TO R
:VZZ021:            -0.01816     0.01083    -0.00800     0.02616       2.220




:POS022: ATOM  -22 X,Y,Z = 0.75000 0.00000 0.75000  MULT= 1  ZZ= 13.000  Al22      

       LMMAX 49


:CHA022: TOTAL VALENCE CHARGE INSIDE SPHERE  22 =   7.2382    (RMT=  2.2200 )
:PCS022: PARTIAL CHARGES SPHERE = 22 S,P,D,F,PX,PY,PZ,D-Z2,D-X2Y2,D-XY,D-XZ,D-YZ 
:QTL022: 0.5970 6.5413 0.0950 0.0046 2.1807 2.1806 2.1800 0.0131 0.0132 0.0231 0.0228 0.0228
        Q-s-low E-s-low   Q-p-low E-p-low   Q-d-low E-d-low   Q-f-low E-f-low
:EPL022:  0.0000 10.0000    5.9948 -4.1748    0.0000 10.0000    0.0000 10.0000
        Q-s-hi  E-s-hi    Q-p-hi  E-p-hi    Q-d-hi  E-d-hi    Q-f-hi  E-f-hi 
:EPH022:  0.5970  0.1230    0.5465  0.2735    0.0950  0.3522    0.0046  0.3637

                      QXX         QXY         QYY         QZZ       UP TO R
:VZZ022:            -0.01952     0.01173    -0.00782     0.02734       2.220




:POS023: ATOM  -23 X,Y,Z = 0.75000 0.50000 0.25000  MULT= 1  ZZ= 13.000  Al23      

       LMMAX 49


[...]
:RTO030:  30        4.176143        0.000000     1487.023383     1491.199526
:RTO031:  31        4.185687        0.000000     1487.024127     1491.209814
:RTO032:  32        4.180633        0.000000     1487.023546     1491.204178
     
       CHARGES OF NEW CHARGE DENSITY
:NTO   : INTERSTITIAL CHARGE =    56.013155
:NTO001: CHARGE SPHERE  1    =    11.249124
:NTO002: CHARGE SPHERE  2    =    11.248481
:NTO003: CHARGE SPHERE  3    =    11.247772
:NTO004: CHARGE SPHERE  4    =    11.249747
:NTO005: CHARGE SPHERE  5    =    11.250559
:NTO006: CHARGE SPHERE  6    =    11.250116
:NTO007: CHARGE SPHERE  7    =    11.248919
:NTO008: CHARGE SPHERE  8    =    11.249459
:NTO009: CHARGE SPHERE  9    =    11.250737
:NTO010: CHARGE SPHERE 10    =    11.250257
:NTO011: CHARGE SPHERE 11    =    11.250468
:NTO012: CHARGE SPHERE 12    =    11.250558
:NTO013: CHARGE SPHERE 13    =    11.248243
:NTO014: CHARGE SPHERE 14    =    11.248410
:NTO015: CHARGE SPHERE 15    =    11.248267
:NTO016: CHARGE SPHERE 16    =    11.249106
:NTO017: CHARGE SPHERE 17    =    11.250009
:NTO018: CHARGE SPHERE 18    =    11.249633
:NTO019: CHARGE SPHERE 19    =    11.249164
:NTO020: CHARGE SPHERE 20    =    11.249168
:NTO021: CHARGE SPHERE 21    =    11.248401
:NTO022: CHARGE SPHERE 22    =    11.248769
:NTO023: CHARGE SPHERE 23    =    11.248492
:NTO024: CHARGE SPHERE 24    =    11.249021
:NTO025: CHARGE SPHERE 25    =    11.250011
:NTO026: CHARGE SPHERE 26    =    11.249957
:NTO027: CHARGE SPHERE 27    =    11.249891
:NTO028: CHARGE SPHERE 28    =    11.249562
:NTO029: CHARGE SPHERE 29    =    11.247797
:NTO030: CHARGE SPHERE 30    =    11.246912
:NTO031: CHARGE SPHERE 31    =    11.248587
:NTO032: CHARGE SPHERE 32    =    11.247403

:NEC01: NUCLEAR AND ELECTRONIC CHARGE    416.00000   415.98616
     
       CHARGES OF OLD CHARGE DENSITY
:OTO   : INTERSTITIAL CHARGE =    56.037371
:OTO001: CHARGE SPHERE  1    =    11.248473
:OTO002: CHARGE SPHERE  2    =    11.248555
:OTO003: CHARGE SPHERE  3    =    11.248581
:OTO004: CHARGE SPHERE  4    =    11.248960
:OTO005: CHARGE SPHERE  5    =    11.248597
:OTO006: CHARGE SPHERE  6    =    11.248968
:OTO007: CHARGE SPHERE  7    =    11.249065
:OTO008: CHARGE SPHERE  8    =    11.248766
:OTO009: CHARGE SPHERE  9    =    11.248869
:OTO010: CHARGE SPHERE 10    =    11.248958
:OTO011: CHARGE SPHERE 11    =    11.248927
:OTO012: CHARGE SPHERE 12    =    11.248845
:OTO013: CHARGE SPHERE 13    =    11.248763
:OTO014: CHARGE SPHERE 14    =    11.248855
:OTO015: CHARGE SPHERE 15    =    11.248872
:OTO016: CHARGE SPHERE 16    =    11.248853
:OTO017: CHARGE SPHERE 17    =    11.249380
:OTO018: CHARGE SPHERE 18    =    11.249401
:OTO019: CHARGE SPHERE 19    =    11.248808
:OTO020: CHARGE SPHERE 20    =    11.248803
:OTO021: CHARGE SPHERE 21    =    11.248278
:OTO022: CHARGE SPHERE 22    =    11.248188
:OTO023: CHARGE SPHERE 23    =    11.249058
:OTO024: CHARGE SPHERE 24    =    11.248995
:OTO025: CHARGE SPHERE 25    =    11.249319
:OTO026: CHARGE SPHERE 26    =    11.248731
:OTO027: CHARGE SPHERE 27    =    11.249358
:OTO028: CHARGE SPHERE 28    =    11.248781
:OTO029: CHARGE SPHERE 29    =    11.248259
:OTO030: CHARGE SPHERE 30    =    11.249121
:OTO031: CHARGE SPHERE 31    =    11.248214
:OTO032: CHARGE SPHERE 32    =    11.249028

:NEC02: NUCLEAR AND ELECTRONIC CHARGE    416.00000   416.00000
     
       CONVERGENCE TEST
:DTO001: DIFFERENCE IN SPHERE  1 =  0.0007662
:DTO002: DIFFERENCE IN SPHERE  2 =  0.0008354
:DTO003: DIFFERENCE IN SPHERE  3 =  0.0011820
:DTO004: DIFFERENCE IN SPHERE  4 =  0.0009321
:DTO005: DIFFERENCE IN SPHERE  5 =  0.0011404
:DTO006: DIFFERENCE IN SPHERE  6 =  0.0008965
:DTO007: DIFFERENCE IN SPHERE  7 =  0.0009391
:DTO008: DIFFERENCE IN SPHERE  8 =  0.0009232
:DTO009: DIFFERENCE IN SPHERE  9 =  0.0011174
:DTO010: DIFFERENCE IN SPHERE 10 =  0.0009261
:DTO011: DIFFERENCE IN SPHERE 11 =  0.0009997
:DTO012: DIFFERENCE IN SPHERE 12 =  0.0010524
:DTO013: DIFFERENCE IN SPHERE 13 =  0.0010016
:DTO014: DIFFERENCE IN SPHERE 14 =  0.0010608
:DTO015: DIFFERENCE IN SPHERE 15 =  0.0011594
:DTO016: DIFFERENCE IN SPHERE 16 =  0.0007383
:DTO017: DIFFERENCE IN SPHERE 17 =  0.0008204
:DTO018: DIFFERENCE IN SPHERE 18 =  0.0008166
:DTO019: DIFFERENCE IN SPHERE 19 =  0.0009494
:DTO020: DIFFERENCE IN SPHERE 20 =  0.0008602
:DTO021: DIFFERENCE IN SPHERE 21 =  0.0007722
:DTO022: DIFFERENCE IN SPHERE 22 =  0.0007272
:DTO023: DIFFERENCE IN SPHERE 23 =  0.0009698
:DTO024: DIFFERENCE IN SPHERE 24 =  0.0007832
:DTO025: DIFFERENCE IN SPHERE 25 =  0.0008269
:DTO026: DIFFERENCE IN SPHERE 26 =  0.0009612
:DTO027: DIFFERENCE IN SPHERE 27 =  0.0008060
:DTO028: DIFFERENCE IN SPHERE 28 =  0.0008625
:DTO029: DIFFERENCE IN SPHERE 29 =  0.0009791
:DTO030: DIFFERENCE IN SPHERE 30 =  0.0018243
:DTO031: DIFFERENCE IN SPHERE 31 =  0.0007459
:DTO032: DIFFERENCE IN SPHERE 32 =  0.0014806

:DIS  :  CHARGE DISTANCE       (  0.001824 for atom   30 spin 1)       0.000964
 
******************************************************
* MULTISECANT MIXING VER7 RELEASE 7.1.2              *
* Slow Mode, cautious                                *
* Hybrid mode active    2.500E-01                     *
* Upper Bound on PW scaling active                   *
* Regularization       1.000E-04                     *
* Step Trust Radius    0.75000                       *
* Greed Lower Bound    2.000E-02                     *
* Trust Upper Limit    5.000E+00                     *
* Charge change trust active                         *
* Max Number of Memory Steps   12                    *
******************************************************
 
:PLANE:  INTERSTITIAL TOTAL      1.75518 DISTAN  1.580E-01 % 
:CHARG:  CLM CHARGE   /ATOM      9.38487 DISTAN  1.375E-02 % 

Step History
      DMIX        Red     Pred      Trust     Lambda    MagRel    MagAbs     Beta
  1  3.50E-02 -1.00E+00  1.00E+00 -1.00E+01  1.00E+00  3.50E-02  3.50E-02  1.00E+00
  2  1.50E-01  1.48E+00  1.00E+00 -1.00E+01  1.00E+00  1.50E-01  5.68E-03  1.00E+00
  3  5.53E-02  7.74E-01  1.00E+00  7.13E-01  3.00E+00  5.53E-02  4.11E-03  1.00E+00
  4  4.91E-02  9.49E-01  5.37E-01  3.49E-01  2.50E-01  2.66E-02  1.54E-03  1.00E+00
  5  3.56E-02  1.00E+00  4.79E-01  1.94E-01  2.50E-01  1.07E-02  5.95E-04  1.00E+00
  6  2.00E-02 -1.00E+00  4.78E-01 -1.00E+01  1.00E+00  6.51E-03  3.65E-04  1.00E+00
  
:NORMS:  1/Froebius, Min, Max, Used   0.3669E-01  0.1495E-01  0.5457E-01  0.5115E-01
:INFO :  Number of Memory Steps    5 Skipping    0
:INFO :  SLambda=    0.2500000  Max    1.0000000

Eigenvalues, unscaled except for SY+YY
   #     SY Real        SY Imag          SS             YY         SY+YY Real      SY+YY Imag
   1   5.125043E-02   0.000000E+00   5.638016E-03   2.154681E+00   2.162465E+00   0.000000E+00
   2   1.470881E-02   0.000000E+00   9.668375E-04   1.322341E+00   1.322022E+00   0.000000E+00
   3  -2.502882E-03   0.000000E+00   1.190153E-04   7.761043E-01   7.830953E-01   0.000000E+00
   4   1.768390E-14   0.000000E+00   5.970688E-06   5.222643E-01   2.247072E-01   0.000000E+00
   5   4.095554E-03   0.000000E+00   1.894972E-18   2.246095E-01   5.245991E-01   0.000000E+00

:INFO :  Singular value  2.162E+00 Weight  1.000E+00 Projection -2.035E-03
:INFO :  Singular value  1.322E+00 Weight  1.000E+00 Projection -4.151E-02
:INFO :  Singular value  7.831E-01 Weight  1.000E+00 Projection  9.588E-03
:INFO :  Singular value  5.246E-01 Weight  1.000E+00 Projection  7.046E-03
:INFO :  Singular value  2.247E-01 Weight  1.000E+00 Projection  1.653E-02
:RANK :  ACTIVE   5.00/5  = 100.00 %

:TRUST:  Step 1.10E-01  Charge 3.50E-02 (e)
:DIRM :  MEMORY  5/12 RESCALE   13.75 RED  0.99 PRED  0.48 NEXT  0.47 
:DIRP :  |MSR1|= 9.054E-05 |PRATT|= 3.815E-02 ANGLE=  97.0 DEGREES
:DIRQ :  |MSR1|= 9.814E-05 |PRATT|= 4.129E-02 ANGLE= 102.8 DEGREES
:DIRT :  |MSR1|= 1.335E-04 |PRATT|= 5.621E-02 ANGLE= 100.1 DEGREES
:MIX  :   MSD1   REGULARIZATION: 2.15E-04  GREED: 0.0200  Newton 1.00 0.002                
     
       CHARGES OF MIXED CHARGE DENSITY
:CTO   : INTERSTITIAL CHARGE =    56.037390
:CTO001: CHARGE SPHERE  1    =    11.248476
:CTO002: CHARGE SPHERE  2    =    11.248556
:CTO003: CHARGE SPHERE  3    =    11.248582
:CTO004: CHARGE SPHERE  4    =    11.248956
:CTO005: CHARGE SPHERE  5    =    11.248600
:CTO006: CHARGE SPHERE  6    =    11.248968
:CTO007: CHARGE SPHERE  7    =    11.249064
:CTO008: CHARGE SPHERE  8    =    11.248763
:CTO009: CHARGE SPHERE  9    =    11.248871
:CTO010: CHARGE SPHERE 10    =    11.248957
:CTO011: CHARGE SPHERE 11    =    11.248927
:CTO012: CHARGE SPHERE 12    =    11.248847
:CTO013: CHARGE SPHERE 13    =    11.248760
:CTO014: CHARGE SPHERE 14    =    11.248850
:CTO015: CHARGE SPHERE 15    =    11.248867
:CTO016: CHARGE SPHERE 16    =    11.248849
:CTO017: CHARGE SPHERE 17    =    11.249381
:CTO018: CHARGE SPHERE 18    =    11.249402
:CTO019: CHARGE SPHERE 19    =    11.248809
:CTO020: CHARGE SPHERE 20    =    11.248803
:CTO021: CHARGE SPHERE 21    =    11.248277
:CTO022: CHARGE SPHERE 22    =    11.248188
:CTO023: CHARGE SPHERE 23    =    11.249055
:CTO024: CHARGE SPHERE 24    =    11.248992
:CTO025: CHARGE SPHERE 25    =    11.249319
:CTO026: CHARGE SPHERE 26    =    11.248731
:CTO027: CHARGE SPHERE 27    =    11.249359
:CTO028: CHARGE SPHERE 28    =    11.248780
:CTO029: CHARGE SPHERE 29    =    11.248258
:CTO030: CHARGE SPHERE 30    =    11.249122
:CTO031: CHARGE SPHERE 31    =    11.248215
:CTO032: CHARGE SPHERE 32    =    11.249027

:NEC03: NUCLEAR AND ELECTRONIC CHARGE    416.00000   416.00000

PW CHANGE     H    K    L             Current                    Change               Residue
:PTO001:      0    0    0  2.91400674E-02 0.00000000E+00  3.075E-09  0.000E+00 -1.722E-06  0.000E+00
:PTO002:     -1    0    0 -7.84379557E-07 6.18561729E-06  1.155E-08  6.948E-09  6.373E-06  8.397E-06
:PTO003:      0   -1    0 -5.74067211E-07-3.93490563E-08  1.419E-09  3.194E-10  1.926E-06  8.941E-07
:PTO004:      0    0   -1 -5.51721624E-07-3.91398320E-08  2.362E-09  3.295E-09  1.495E-06  2.182E-06
:PTO005:      0    0    1 -5.51721624E-07 3.91398320E-08  2.362E-09 -3.295E-09  1.495E-06 -2.182E-06
:PTO006:      0    1    0 -5.74067211E-07 3.93490563E-08  1.419E-09 -3.194E-10  1.926E-06 -8.941E-07
:PTO007:      1    0    0 -7.84379557E-07-6.18561729E-06  1.155E-08 -6.948E-09  6.373E-06 -8.397E-06
:PTO008:     -1   -1    0 -3.78125185E-07 5.12310370E-06  5.852E-09 -6.778E-09 -5.581E-06 -6.141E-07
:PTO009:     -1    0   -1 -5.06058466E-07 5.14479353E-06  5.499E-09 -2.562E-09 -3.361E-06 -3.022E-06
:PTO010:     -1    0    1 -6.35293807E-07 5.43381832E-06  6.917E-09  1.749E-09 -8.933E-07 -3.966E-06
:PTO011:     -1    1    0 -5.73461065E-07 5.29297956E-06  6.155E-09 -1.423E-09 -2.201E-06 -2.145E-07
:PTO012:      0   -1   -1 -9.59293373E-07-3.98697339E-08 -3.944E-09 -3.797E-09  3.281E-06 -3.515E-07

:ENE  : ********** TOTAL ENERGY IN Ry =       -15540.57240740

       TOTAL FORCE IN mRy/a.u. = |F|     Fx             Fy             Fz     with/without FOR in case.in2
:FOR001:   1.ATOM       0.629358      -0.618594      -0.057049      -0.100889 total forces
:FOR002:   2.ATOM       0.573601      -0.568780      -0.071684      -0.019223 total forces
:FOR003:   3.ATOM       0.466287      -0.446503       0.000229      -0.134382 total forces
:FOR004:   4.ATOM       1.122516      -1.122379       0.014042      -0.010476 total forces
:FOR005:   5.ATOM       0.390792       0.383889      -0.049261      -0.054042 total forces
:FOR006:   6.ATOM       0.162411       0.143380       0.002369       0.076249 total forces
:FOR007:   7.ATOM       0.191110       0.168347       0.090451      -0.000807 total forces
:FOR008:   8.ATOM       0.477168      -0.475093      -0.004253      -0.044252 total forces
:FOR009:   9.ATOM       0.624406      -0.259451       0.388132       0.414634 total forces
:FOR010:  10.ATOM       0.588492      -0.205231       0.427167      -0.348901 total forces
:FOR011:  11.ATOM       0.648403      -0.287789      -0.297742       0.498953 total forces
:FOR012:  12.ATOM       0.442513      -0.260063      -0.228515      -0.275618 total forces
:FOR013:  13.ATOM       0.585780       0.585514      -0.015521      -0.008348 total forces
:FOR014:  14.ATOM       0.360674       0.360461      -0.005333      -0.011187 total forces
:FOR015:  15.ATOM       0.312362       0.310544       0.013771       0.030705 total forces
:FOR016:  16.ATOM       0.131694       0.077170       0.075578       0.075340 total forces
:FOR017:  17.ATOM       0.768823       0.485933      -0.263420       0.534386 total forces
:FOR018:  18.ATOM       0.944050       0.550476      -0.038072      -0.766001 total forces
:FOR019:  19.ATOM       0.536442       0.389625       0.323415      -0.177103 total forces
:FOR020:  20.ATOM       0.425857       0.423675       0.033100      -0.027539 total forces
:FOR021:  21.ATOM       0.966252      -0.789456      -0.012623       0.556993 total forces
:FOR022:  22.ATOM       0.800021      -0.592631       0.150409      -0.515944 total forces
:FOR023:  23.ATOM       0.189247       0.170667       0.062291       0.052982 total forces
:FOR024:  24.ATOM       0.371629       0.323506      -0.179821      -0.033414 total forces
:FOR025:  25.ATOM       0.805716       0.489064       0.615635      -0.176036 total forces
:FOR026:  26.ATOM       0.578123       0.367439      -0.079179       0.439256 total forces
:FOR027:  27.ATOM       0.970971       0.647714      -0.723131       0.018234 total forces
:FOR028:  28.ATOM       0.530897       0.517835      -0.040386       0.109852 total forces
:FOR029:  29.ATOM       0.967884      -0.831256       0.491253      -0.066963 total forces
:FOR030:  30.ATOM       0.282082       0.265959      -0.041758       0.084216 total forces
:FOR031:  31.ATOM       0.806399      -0.611966      -0.522689       0.050725 total forces
:FOR032:  32.ATOM       0.454908       0.417663      -0.056971      -0.171035 total forces
       TOTAL FORCE WITH RESPECT TO GLOBAL CARTESIAN COORDINATES:
:FCA001:   1.ATOM                     -0.618594      -0.057049      -0.100889 total forces
:FCA002:   2.ATOM                     -0.568780      -0.071684      -0.019223 total forces
:FCA003:   3.ATOM                     -0.446503       0.000229      -0.134382 total forces
:FCA004:   4.ATOM                     -1.122379       0.014042      -0.010476 total forces
:FCA005:   5.ATOM                      0.383889      -0.049261      -0.054042 total forces
:FCA006:   6.ATOM                      0.143380       0.002369       0.076249 total forces
:FCA007:   7.ATOM                      0.168347       0.090451      -0.000807 total forces
:FCA008:   8.ATOM                     -0.475093      -0.004253      -0.044252 total forces
:FCA009:   9.ATOM                     -0.259451       0.388132       0.414634 total forces
:FCA010:  10.ATOM                     -0.205231       0.427167      -0.348901 total forces
:FCA011:  11.ATOM                     -0.287789      -0.297742       0.498953 total forces
:FCA012:  12.ATOM                     -0.260063      -0.228515      -0.275618 total forces
:FCA013:  13.ATOM                      0.585514      -0.015521      -0.008348 total forces
:FCA014:  14.ATOM                      0.360461      -0.005333      -0.011187 total forces
:FCA015:  15.ATOM                      0.310544       0.013771       0.030705 total forces
:FCA016:  16.ATOM                      0.077170       0.075578       0.075340 total forces
:FCA017:  17.ATOM                      0.485933      -0.263420       0.534386 total forces
:FCA018:  18.ATOM                      0.550476      -0.038072      -0.766001 total forces
:FCA019:  19.ATOM                      0.389625       0.323415      -0.177103 total forces
:FCA020:  20.ATOM                      0.423675       0.033100      -0.027539 total forces
:FCA021:  21.ATOM                     -0.789456      -0.012623       0.556993 total forces
:FCA022:  22.ATOM                     -0.592631       0.150409      -0.515944 total forces
:FCA023:  23.ATOM                      0.170667       0.062291       0.052982 total forces
:FCA024:  24.ATOM                      0.323506      -0.179821      -0.033414 total forces
:FCA025:  25.ATOM                      0.489064       0.615635      -0.176036 total forces
:FCA026:  26.ATOM                      0.367439      -0.079179       0.439256 total forces
:FCA027:  27.ATOM                      0.647714      -0.723131       0.018234 total forces
:FCA028:  28.ATOM                      0.517835      -0.040386       0.109852 total forces
:FCA029:  29.ATOM                     -0.831256       0.491253      -0.066963 total forces
:FCA030:  30.ATOM                      0.265959      -0.041758       0.084216 total forces
:FCA031:  31.ATOM                     -0.611966      -0.522689       0.050725 total forces
:FCA032:  32.ATOM                      0.417663      -0.056971      -0.171035 total forces
       TOTAL FORCE WITH RESPECT TO THE GLOBAL COORDINATE SYSTEM:
:FGL001:   1.ATOM                -0.618593586    -0.057049191    -0.100888674 total forces
:FGL002:   2.ATOM                -0.568779843    -0.071684242    -0.019222725 total forces
:FGL003:   3.ATOM                -0.446503458     0.000229406    -0.134382365 total forces
:FGL004:   4.ATOM                -1.122379227     0.014042064    -0.010476462 total forces
:FGL005:   5.ATOM                 0.383889118    -0.049261231    -0.054042119 total forces
:FGL006:   6.ATOM                 0.143379957     0.002369195     0.076248549 total forces
:FGL007:   7.ATOM                 0.168347244     0.090451172    -0.000807371 total forces
:FGL008:   8.ATOM                -0.475092847    -0.004253399    -0.044251647 total forces
:FGL009:   9.ATOM                -0.259451083     0.388132100     0.414634223 total forces
:FGL010:  10.ATOM                -0.205231080     0.427167179    -0.348900774 total forces
:FGL011:  11.ATOM                -0.287789286    -0.297741552     0.498953144 total forces
:FGL012:  12.ATOM                -0.260063450    -0.228515456    -0.275618148 total forces
:FGL013:  13.ATOM                 0.585514395    -0.015520805    -0.008348326 total forces
:FGL014:  14.ATOM                 0.360460649    -0.005333248    -0.011186628 total forces
:FGL015:  15.ATOM                 0.310543535     0.013770758     0.030705495 total forces
:FGL016:  16.ATOM                 0.077170052     0.075577793     0.075340145 total forces
:FGL017:  17.ATOM                 0.485932710    -0.263419689     0.534386082 total forces
:FGL018:  18.ATOM                 0.550475798    -0.038071659    -0.766000903 total forces
:FGL019:  19.ATOM                 0.389625036     0.323414811    -0.177103381 total forces
:FGL020:  20.ATOM                 0.423674907     0.033100233    -0.027539220 total forces
:FGL021:  21.ATOM                -0.789456477    -0.012623449     0.556992984 total forces
:FGL022:  22.ATOM                -0.592631358     0.150409496    -0.515944225 total forces
:FGL023:  23.ATOM                 0.170667084     0.062291083     0.052982194 total forces
:FGL024:  24.ATOM                 0.323506037    -0.179820554    -0.033413619 total forces
:FGL025:  25.ATOM                 0.489063690     0.615635020    -0.176035764 total forces
:FGL026:  26.ATOM                 0.367438626    -0.079179151     0.439255945 total forces
:FGL027:  27.ATOM                 0.647714091    -0.723131129     0.018234251 total forces
:FGL028:  28.ATOM                 0.517834897    -0.040386104     0.109852219 total forces
:FGL029:  29.ATOM                -0.831255881     0.491252792    -0.066963031 total forces
:FGL030:  30.ATOM                 0.265959213    -0.041757757     0.084215509 total forces
:FGL031:  31.ATOM                -0.611965867    -0.522689487     0.050725050 total forces
:FGL032:  32.ATOM                 0.417662779    -0.056970949    -0.171035259 total forces
:FCHECK:   Sum of forces          0.009666375     0.000434050     0.000365150
