ITEM: TIMESTEP
0
ITEM: NUMBER OF ATOMS
32
ITEM: BOX BOUNDS xy xz yz pp pp pp
0.0000000000000000e+00 8.0799990000000008e+00 0.0000000000000000e+00
0.0000000000000000e+00 8.0799990000000008e+00 0.0000000000000000e+00
0.0000000000000000e+00 8.0799990000000008e+00 0.0000000000000000e+00
ITEM: ATOMS id xu yu zu fx fy fz
     1    0.010019198760000    0.000000000000000    0.000000000000000   -0.024059467276545   -0.002218852023556   -0.003923955929193
     2    0.000000000000000    0.000000000000000    4.039999500000000   -0.022122011848730   -0.002788062690960   -0.000747655391835
     3    0.000000000000000    4.039999500000000    0.000000000000000   -0.017366195464843    0.000008906678704   -0.005226625753817
     4    0.000000000000000    4.039999500000000    4.039999500000000   -0.043653577018822    0.000546146647878   -0.000407451380371
     5    4.039999500000000    0.000000000000000    0.000000000000000    0.014930899480638   -0.001915947160027   -0.002101898386598
     6    4.039999500000000    0.000000000000000    4.039999500000000    0.005576592107442    0.000092139396726    0.002965612858142
     7    4.039999500000000    4.039999500000000    0.000000000000000    0.006547653448958    0.003517982512974   -0.000031387291329
     8    4.039999500000000    4.039999500000000    4.039999500000000   -0.018478169020093   -0.000165415303619   -0.001721128148546
     9    0.000000000000000    2.019999750000000    2.019999750000000   -0.010091033609066    0.015095925846322    0.016126689160811
    10    0.000000000000000    2.019999750000000    6.059999250000001   -0.007982212127231    0.016614145074346   -0.013570083434779
    11    0.000000000000000    6.059999250000001    2.019999750000000   -0.011193205928363   -0.011580315854750    0.019406174932240
    12    0.000000000000000    6.059999250000001    6.059999250000001   -0.010114836610669   -0.008887815214340   -0.010719829568064
    13    4.039999500000000    2.019999750000000    2.019999750000000    0.022772860588623   -0.000603670568417   -0.000324685387871
    14    4.039999500000000    2.019999750000000    6.059999250000001    0.014019695687269   -0.000207420600565   -0.000435104867527
    15    4.039999500000000    6.059999250000001    2.019999750000000    0.012078234198727    0.000535606429848    0.001194233928435
    16    4.039999500000000    6.059999250000001    6.059999250000001    0.003001434041926    0.002939515122725    0.002930258399879
    17    2.019999750000000    0.000000000000000    2.019999750000000    0.018899777741286   -0.010245403075341    0.020784298716191
    18    2.019999750000000    0.000000000000000    6.059999250000001    0.021410099853092   -0.001480764504914   -0.029792684690283
    19    2.019999750000000    4.039999500000000    2.019999750000000    0.015153994279970    0.012578836214454   -0.006888207504563
    20    2.019999750000000    4.039999500000000    6.059999250000001    0.016478327947556    0.001287384563791   -0.001071096178315
    21    6.059999250000001    0.000000000000000    2.019999750000000   -0.030704938616075   -0.000490956354947    0.021663570705123
    22    6.059999250000001    0.000000000000000    6.059999250000001   -0.023049667716735    0.005849976581729   -0.020067019377055
    23    6.059999250000001    4.039999500000000    2.019999750000000    0.006637887049803    0.002422733288915    0.002060670965522
    24    6.059999250000001    4.039999500000000    6.059999250000001    0.012582375549659   -0.006993920835209   -0.001299597214940
    25    2.019999750000000    2.019999750000000    0.000000000000000    0.019021554208635    0.023944380541673   -0.006846707826933
    26    2.019999750000000    2.019999750000000    4.039999500000000    0.014291096578089   -0.003079571673003    0.017084332143580
    27    2.019999750000000    6.059999250000001    0.000000000000000    0.025192054542333   -0.028125307764309    0.000709189430096
    28    2.019999750000000    6.059999250000001    4.039999500000000    0.020140567540503   -0.001570764742999    0.004272561000047
    29    6.059999250000001    2.019999750000000    0.000000000000000   -0.032330699183037    0.019106692722536   -0.002604445091998
    30    6.059999250000001    2.019999750000000    4.039999500000000    0.010344154416956   -0.001624127027637    0.003275479710701
    31    6.059999250000001    6.059999250000001    0.000000000000000   -0.023801679213439   -0.020329358013996    0.001972887673664
    32    6.059999250000001    6.059999250000001    4.039999500000000    0.016244498461226   -0.002215818307666   -0.006652199965800
