# Structure data of Ta (2x2x2 conventional) 

16 atoms
1 atom types

0.0 6.6445760727 xlo xhi
0.0 6.6445760727 ylo yhi
0.0 6.6445760727 zlo zhi
0.000000    0.000000    0.000000   xy xz yz

Masses

1 180.9479  # Ta

Atoms  # atomic

1 1 0.0 0.0 0.0
2 1 0.0 0.0 3.3222880363
3 1 0.0 3.3222880363 0.0
4 1 0.0 3.3222880363 3.3222880363
5 1 3.3222880363 0.0 0.0
6 1 3.3222880363 0.0 3.3222880363
7 1 3.3222880363 3.3222880363 0.0
8 1 3.3222880363 3.3222880363 3.3222880363
9 1 1.6611440182 1.6611440182 1.6611440182
10 1 1.6611440182 1.6611440182 4.9834320545
11 1 1.6611440182 4.9834320545 1.6611440182
12 1 1.6611440182 4.9834320545 4.9834320545
13 1 4.9834320545 1.6611440182 1.6611440182
14 1 4.9834320545 1.6611440182 4.9834320545
15 1 4.9834320545 4.9834320545 1.6611440182
16 1 4.9834320545 4.9834320545 4.9834320545
