# Structure data of Al (2x2x2 conventional) 

32 atoms
1 atom types

0.0 7.242524147 xlo xhi
0.0 7.242524147 ylo yhi
0.0 7.242524147 zlo zhi
0.000000    0.000000    0.000000   xy xz yz

Masses

1 63.546  # Cu

Atoms  # atomic

1 1 0.0 0.0 0.0
2 1 0.0 0.0 3.6212620735
3 1 0.0 3.6212620735 0.0
4 1 0.0 3.6212620735 3.6212620735
5 1 3.6212620735 0.0 0.0
6 1 3.6212620735 0.0 3.6212620735
7 1 3.6212620735 3.6212620735 0.0
8 1 3.6212620735 3.6212620735 3.6212620735
9 1 0.0 1.8106310368 1.8106310368
10 1 0.0 1.8106310368 5.4318931102
11 1 0.0 5.4318931102 1.8106310368
12 1 0.0 5.4318931102 5.4318931102
13 1 3.6212620735 1.8106310368 1.8106310368
14 1 3.6212620735 1.8106310368 5.4318931102
15 1 3.6212620735 5.4318931102 1.8106310368
16 1 3.6212620735 5.4318931102 5.4318931102
17 1 1.8106310368 0.0 1.8106310368
18 1 1.8106310368 0.0 5.4318931102
19 1 1.8106310368 3.6212620735 1.8106310368
20 1 1.8106310368 3.6212620735 5.4318931102
21 1 5.4318931102 0.0 1.8106310368
22 1 5.4318931102 0.0 5.4318931102
23 1 5.4318931102 3.6212620735 1.8106310368
24 1 5.4318931102 3.6212620735 5.4318931102
25 1 1.8106310368 1.8106310368 0.0
26 1 1.8106310368 1.8106310368 3.6212620735
27 1 1.8106310368 5.4318931102 0.0
28 1 1.8106310368 5.4318931102 3.6212620735
29 1 5.4318931102 1.8106310368 0.0
30 1 5.4318931102 1.8106310368 3.6212620735
31 1 5.4318931102 5.4318931102 0.0
32 1 5.4318931102 5.4318931102 3.6212620735
