ITEM: TIMESTEP
0
ITEM: NUMBER OF ATOMS
16
ITEM: BOX BOUNDS xy xz yz pp pp pp
0.0000000000000000e+00 5.6801033020000000e+00 0.0000000000000000e+00
0.0000000000000000e+00 5.6801033020000000e+00 0.0000000000000000e+00
0.0000000000000000e+00 5.6801033020000000e+00 0.0000000000000000e+00
ITEM: ATOMS id xu yu zu fx fy fz
1    0.040000000000000    0.000000000000000    0.000000000000000   -0.254734158515930    0.003538418561220   -0.000001501291990
2    0.000000000000000    0.040000000000000    2.840051651000000    0.003537516109645   -0.254730254411697   -0.000001833861461
3    0.000000000000000    2.840051651000000    0.000000000000000    0.003551214933395    0.006023683119565    0.000003982466296
4    0.000000000000000    2.840051651000000    2.840051651000000   -0.003321232739836    0.064030312001705    0.000000775675289
5    2.840051651000000    0.000000000000000    0.000000000000000    0.064029015600681   -0.003311824286357    0.000003433742677
6    2.840051651000000    0.000000000000000    2.840051651000000    0.006025909446180    0.003551336470991   -0.000001171953045
7    2.840051651000000    2.840051651000000    0.000000000000000    0.006025232840329    0.001802195329219   -0.000001197680831
8    2.840051651000000    2.840051651000000    2.840051651000000    0.001805120962672    0.006024722009897   -0.000000003317837
9    1.420025825500000    1.420025825500000    1.420025825500000    0.048758663237095    0.048738613724709   -0.000005175163096
10    1.420025825500000    1.420025825500000    4.260077476500000    0.048759423196316    0.048738256096840    0.000005896203220
11    1.420025825500000    4.260077476500000    1.420025825500000   -0.001888406579383   -0.005502187646925    0.050661303102970
12    1.420025825500000    4.260077476500000    4.260077476500000   -0.001890715793706   -0.005505072418600   -0.050663314759731
13    4.260077476500000    1.420025825500000    1.420025825500000   -0.005518505349755   -0.001906844088808   -0.050665847957134
14    4.260077476500000    1.420025825500000    4.260077476500000   -0.005523424595594   -0.001908328151330    0.050666369497776
15    4.260077476500000    4.260077476500000    1.420025825500000    0.045192182064056    0.045208215713501   -0.000001705629984
16    4.260077476500000    4.260077476500000    4.260077476500000    0.045192271471024    0.045208644121885   -0.000000011175871
