ITEM: TIMESTEP
0
ITEM: NUMBER OF ATOMS
16
ITEM: BOX BOUNDS xy xz yz pp pp pp
0.0000000000000000e+00 5.6801033020000000e+00 0.0000000000000000e+00
0.0000000000000000e+00 5.6801033020000000e+00 0.0000000000000000e+00
0.0000000000000000e+00 5.6801033020000000e+00 0.0000000000000000e+00
ITEM: ATOMS id xu yu zu fx fy fz
1    0.010000000000000    0.000000000000000    0.000000000000000   -0.063726678490639    0.000003121793270   -0.000004954636097
2    0.000000000000000    0.000000000000000    2.840051651000000    0.000882596068550   -0.000003601424396    0.000002421438694
3    0.000000000000000    2.840051651000000    0.000000000000000    0.000882280815858    0.000000665953849    0.000000105986601
4    0.000000000000000    2.840051651000000    2.840051651000000   -0.000821802648716    0.000001685519237    0.000001551394234
5    2.840051651000000    0.000000000000000    0.000000000000000    0.016131948679686    0.000002421773388   -0.000000623651431
6    2.840051651000000    0.000000000000000    2.840051651000000    0.001498414902017    0.000000903266482    0.000000938103767
7    2.840051651000000    2.840051651000000    0.000000000000000    0.001497056568041   -0.000001312975655    0.000000028696377
8    2.840051651000000    2.840051651000000    2.840051651000000    0.000450333260233   -0.000002100321581    0.000001420674380
9    1.420025825500000    1.420025825500000    1.420025825500000    0.005446742288768    0.006393591407686    0.006390921771526
10    1.420025825500000    1.420025825500000    4.260077476500000    0.005445592571050    0.006395291537046   -0.006391436792910
11    1.420025825500000    4.260077476500000    1.420025825500000    0.005444857757539   -0.006395240314305    0.006392581854016
12    1.420025825500000    4.260077476500000    4.260077476500000    0.005445236340165   -0.006393371615559   -0.006390381604433
13    4.260077476500000    1.420025825500000    1.420025825500000    0.005356797017157   -0.006239829584956   -0.006243879441172
14    4.260077476500000    1.420025825500000    4.260077476500000    0.005355697125196   -0.006241952069104    0.006242644973099
15    4.260077476500000    4.260077476500000    1.420025825500000    0.005356959067285    0.006239900365472   -0.006244346033782
16    4.260077476500000    4.260077476500000    4.260077476500000    0.005354065448046    0.006239864975214    0.006243020296097
