ITEM: TIMESTEP
0
ITEM: NUMBER OF ATOMS
16
ITEM: BOX BOUNDS xy xz yz pp pp pp
0.0000000000000000e+00 5.6801033020000000e+00 0.0000000000000000e+00
0.0000000000000000e+00 5.6801033020000000e+00 0.0000000000000000e+00
0.0000000000000000e+00 5.6801033020000000e+00 0.0000000000000000e+00
ITEM: ATOMS id xu yu zu fx fy fz
1    0.040000000000000    0.000000000000000    0.000000000000000   -0.248685300350189    0.000000745058060   -0.000004239380360
2    0.000000000000000    0.000000000000000    2.840051651000000    0.067576870322227    0.000005215813871    0.000001155131031
3    0.000000000000000    2.840051651000000    0.000000000000000    0.005353859625757    0.000000739353709   -0.000007431051927
4    0.000000000000000    2.840051651000000    2.840051651000000    0.002704964485019    0.000004171801265    0.000004085683031
5    2.840051651000000    0.000000000000000    0.000000000000000    0.067578896880150    0.000000082457433   -0.000000000895938
6    2.880051651000000    0.000000000000000    2.840051651000000   -0.248679846525192    0.000001818742021    0.000001077467459
7    2.840051651000000    2.840051651000000    0.000000000000000    0.002705837599933   -0.000001935128239   -0.000000926607754
8    2.840051651000000    2.840051651000000    2.840051651000000    0.005350004881620   -0.000001982436515    0.000001139967935
9    1.420025825500000    1.420025825500000    1.420025825500000    0.043276101350784    0.002666807034984    0.050672832876444
10    1.420025825500000    1.420025825500000    4.260077476500000    0.043276786804199    0.002666146028787   -0.050671555101871
11    1.420025825500000    4.260077476500000    1.420025825500000    0.043277382850647   -0.002668237779289    0.050670955330133
12    1.420025825500000    4.260077476500000    4.260077476500000    0.043276373296976   -0.002666308777407   -0.050670236349106
13    4.260077476500000    1.420025825500000    1.420025825500000    0.043246470391750    0.002662514336407   -0.050680428743362
14    4.260077476500000    1.420025825500000    4.260077476500000    0.043248072266579    0.002662974409759    0.050681564956903
15    4.260077476500000    4.260077476500000    1.420025825500000    0.043246328830719   -0.002664576750249   -0.050680220127106
16    4.260077476500000    4.260077476500000    4.260077476500000    0.043247155845165   -0.002668086439371    0.050682269036770
