ITEM: TIMESTEP
0
ITEM: NUMBER OF ATOMS
16
ITEM: BOX BOUNDS xy xz yz pp pp pp
0.0000000000000000e+00 5.6801033020000000e+00 0.0000000000000000e+00
0.0000000000000000e+00 5.6801033020000000e+00 0.0000000000000000e+00
0.0000000000000000e+00 5.6801033020000000e+00 0.0000000000000000e+00
ITEM: ATOMS id xu yu zu fx fy fz
1    0.040000000000000    0.000000000000000    0.000000000000000   -0.251402020454407   -0.000000033527613   -0.000000555068254
2    0.000000000000000    0.000000000000000    2.840051651000000    0.000000225525582    0.000002212851541   -0.000001454201993
3    0.000000000000000    2.840051651000000    0.000000000000000    0.000002627653885   -0.000000306987204   -0.000002387634595
4   -0.040000000000001    2.840051651000000    2.840051651000000    0.251397907733917    0.000005218375009    0.000003227673005
5    2.840051651000000    0.000000000000000    0.000000000000000    0.062230527400970   -0.000001083055395   -0.000001783409971
6    2.840051651000000    0.000000000000000    2.840051651000000    0.000002222310286    0.000001243664883    0.000000867687049
7    2.840051651000000    2.840051651000000    0.000000000000000    0.000002712826245    0.000001306994818   -0.000001194537617
8    2.840051651000000    2.840051651000000    2.840051651000000   -0.062221042811871   -0.000000118699973    0.000000705011189
9    1.420025825500000    1.420025825500000    1.420025825500000    0.001235931413248    0.050676330924034    0.050673339515924
10    1.420025825500000    1.420025825500000    4.260077476500000    0.001237816642970    0.050676435232162   -0.050669915974140
11    1.420025825500000    4.260077476500000    1.420025825500000    0.001234365976416   -0.050674363970757    0.050672095268965
12    1.420025825500000    4.260077476500000    4.260077476500000    0.001232300768606   -0.050678439438343   -0.050670363008976
13    4.260077476500000    1.420025825500000    1.420025825500000   -0.001238730270416   -0.050682436674833   -0.050680764019489
14    4.260077476500000    1.420025825500000    4.260077476500000   -0.001239834120497   -0.050679728388786    0.050680547952652
15    4.260077476500000    4.260077476500000    1.420025825500000   -0.001237980788574    0.050677165389061   -0.050683204084635
16    4.260077476500000    4.260077476500000    4.260077476500000   -0.001237183809280    0.050676532089710    0.050680801272392
