ITEM: TIMESTEP
0
ITEM: NUMBER OF ATOMS
16
ITEM: BOX BOUNDS xy xz yz pp pp pp
0.0000000000000000e+00 5.6801033020000000e+00 0.0000000000000000e+00
0.0000000000000000e+00 5.6801033020000000e+00 0.0000000000000000e+00
0.0000000000000000e+00 5.6801033020000000e+00 0.0000000000000000e+00
ITEM: ATOMS id xu yu zu fx fy fz
1    0.040000000000000    0.000000000000000    0.000000000000000   -0.254815816879272   -0.000000081956387    0.006071522831917
2    0.000000000000000    0.000000000000000    2.840051651000000    0.003549575107172   -0.000004304616596    0.003552579786628
3    0.000000000000000    2.840051651000000    0.000000000000000    0.003549686865881    0.000000589468982    0.001799469464459
4    0.000000000000000    2.840051651000000    2.840051651000000   -0.003325370140374    0.000002475862857   -0.003312123240903
5    2.840051651000000    0.000000000000000    0.000000000000000    0.064048096537590   -0.000000246119896    0.064047597348690
6    2.840051651000000    0.000000000000000    2.880051651000000    0.006075876764953    0.000001899854396   -0.254810929298401
7    2.840051651000000    2.840051651000000    0.000000000000000    0.006030016578734   -0.000001409745892    0.006025607697666
8    2.840051651000000    2.840051651000000    2.840051651000000    0.001803867286071   -0.000001059088390    0.003552114125341
9    1.420025825500000    1.420025825500000    1.420025825500000    0.046255204826593    0.002528193639591    0.047705367207527
10    1.420025825500000    1.420025825500000    4.260077476500000   -0.004435124341398    0.053200218826532   -0.004446303937584
11    1.420025825500000    4.260077476500000    1.420025825500000    0.046254813671112   -0.002527236007154    0.047704633325338
12    1.420025825500000    4.260077476500000    4.260077476500000   -0.004435951821506   -0.053199097514153   -0.004445375408977
13    4.260077476500000    1.420025825500000    1.420025825500000   -0.002972664311528   -0.048184052109718   -0.002962078899145
14    4.260077476500000    1.420025825500000    4.260077476500000    0.047694221138954    0.002527499105781    0.046239644289017
15    4.260077476500000    4.260077476500000    1.420025825500000   -0.002970292698592    0.048186160624027   -0.002963385544717
16    4.260077476500000    4.260077476500000    4.260077476500000    0.047693781554699   -0.002529574558139    0.046241629868746
