ITEM: TIMESTEP
0
ITEM: NUMBER OF ATOMS
16
ITEM: BOX BOUNDS xy xz yz pp pp pp
0.0000000000000000e+00 5.6801033020000000e+00 0.0000000000000000e+00
0.0000000000000000e+00 5.6801033020000000e+00 0.0000000000000000e+00
0.0000000000000000e+00 5.6801033020000000e+00 0.0000000000000000e+00
ITEM: ATOMS id xu yu zu fx fy fz
1    0.040000000000000    0.000000000000000    0.000000000000000   -0.315590441226959   -0.000002227723598   -0.000005967915058
2    0.000000000000000    0.000000000000000    2.840051651000000   -0.002472973894328    0.000000962829972    0.000001254433300
3    0.000000000000000    2.840051651000000    0.000000000000000   -0.002474125707522    0.000000416708644    0.000002604894689
4    0.000000000000000    2.840051651000000    2.840051651000000   -0.005105394870043    0.000004379369784    0.000000762127456
5    2.800051651000000    0.000000000000000    0.000000000000000    0.315587162971497    0.000001692547812    0.000002915374353
6    2.840051651000000    0.000000000000000    2.840051651000000    0.002476457506418    0.000001047883416   -0.000001108346623
7    2.840051651000000    2.840051651000000    0.000000000000000    0.002475163433701    0.000000366970198    0.000000324100256
8    2.840051651000000    2.840051651000000    2.840051651000000    0.005104186013341   -0.000001057982445   -0.000001273496309
9    1.420025825500000    1.420025825500000    1.420025825500000    0.000017953658244    0.053015008568764    0.053014446049929
10    1.420025825500000    1.420025825500000    4.260077476500000    0.000016759382561    0.053010657429695   -0.053008634597063
11    1.420025825500000    4.260077476500000    1.420025825500000    0.000016412930563   -0.053012277930975    0.053011219948530
12    1.420025825500000    4.260077476500000    4.260077476500000    0.000010856922017   -0.053015332669020   -0.053014278411865
13    4.260077476500000    1.420025825500000    1.420025825500000   -0.000013600278180   -0.048219420015812   -0.048220485448837
14    4.260077476500000    1.420025825500000    4.260077476500000   -0.000017185448087   -0.048218786716461    0.048220358788967
15    4.260077476500000    4.260077476500000    1.420025825500000   -0.000014643926988    0.048216253519058   -0.048220887780190
16    4.260077476500000    4.260077476500000    4.260077476500000   -0.000016633421183    0.048218358308077    0.048218782991171
