ITEM: TIMESTEP
0
ITEM: NUMBER OF ATOMS
16
ITEM: BOX BOUNDS xy xz yz pp pp pp
0.0000000000000000e+00 5.6801033020000000e+00 0.0000000000000000e+00
0.0000000000000000e+00 5.6801033020000000e+00 0.0000000000000000e+00
0.0000000000000000e+00 5.6801033020000000e+00 0.0000000000000000e+00
ITEM: ATOMS id xu yu zu fx fy fz
1    0.040000000000000    0.000000000000000    0.000000000000000   -0.260917305946350   -0.000000368803740   -0.000003125518560
2    0.000000000000000    0.000000000000000    2.840051651000000   -0.060489758849144    0.000000810687197   -0.000002882967237
3    0.000000000000000    2.840051651000000    0.000000000000000    0.001748399925418   -0.000000835338142   -0.000004268236808
4    0.000000000000000    2.840051651000000    2.840051651000000   -0.009352177381516    0.000008583243471    0.000006325266440
5    2.840051651000000    0.000000000000000    0.000000000000000    0.060489468276501    0.000001134176273   -0.000002033251803
6    2.800051651000000    0.000000000000000    2.840051651000000    0.260913044214249   -0.000000553307473    0.000001594249625
7    2.840051651000000    2.840051651000000    0.000000000000000    0.009351701475680    0.000000022162567   -0.000003860302968
8    2.840051651000000    2.840051651000000    2.840051651000000   -0.001748826354742    0.000000974672730    0.000002498592949
9    1.420025825500000    1.420025825500000    1.420025825500000    0.000019956089091    0.053065128624439    0.000003370223567
10    1.420025825500000    1.420025825500000    4.260077476500000    0.000013615033822    0.053070314228535    0.000003073029802
11    1.420025825500000    4.260077476500000    1.420025825500000    0.000012378499378   -0.053067229688168    0.000000368730980
12    1.420025825500000    4.260077476500000    4.260077476500000    0.000009425828466   -0.053070116788149   -0.000000015570549
13    4.260077476500000    1.420025825500000    1.420025825500000   -0.000010350266166   -0.048320412635803   -0.000000315310899
14    4.260077476500000    1.420025825500000    4.260077476500000   -0.000012593167412   -0.048318650573492   -0.000000895377411
15    4.260077476500000    4.260077476500000    1.420025825500000   -0.000013059430785    0.048314772546291   -0.000001764507033
16    4.260077476500000    4.260077476500000    4.260077476500000   -0.000013760598449    0.048316482454538    0.000001966953278
