ITEM: TIMESTEP
0
ITEM: NUMBER OF ATOMS
16
ITEM: BOX BOUNDS xy xz yz pp pp pp
0.0000000000000000e+00 5.6801033020000000e+00 0.0000000000000000e+00
0.0000000000000000e+00 5.6801033020000000e+00 0.0000000000000000e+00
0.0000000000000000e+00 5.6801033020000000e+00 0.0000000000000000e+00
ITEM: ATOMS id xu yu zu fx fy fz
1    0.040000000000000    0.000000000000000    0.000000000000000   -0.254751473665237    0.001840621232986   -0.000002995133400
2    0.000000000000000    0.000000000000000    2.840051651000000    0.003550230525434    0.006027032621205   -0.000003043562174
3    0.000000000000000    2.840051651000000    0.000000000000000    0.003551218658686   -0.003316318616271    0.000007441412890
4    0.000000000000000    2.840051651000000    2.840051651000000   -0.003325576428324    0.003554117167369    0.000000146887032
5    2.840051651000000    0.000000000000000    0.000000000000000    0.064025953412056    0.006031386554241    0.000002412503818
6    2.840051651000000    0.000000000000000    2.840051651000000    0.006031131371856    0.064026750624180   -0.000000491738319
7    2.840051651000000    2.840051651000000    0.000000000000000    0.006026010960340    0.003551535541192   -0.000002756598406
8    2.840051651000000    2.880051651000000    2.840051651000000    0.001850931905210   -0.254743874073029    0.000001385284122
9    1.420025825500000    1.420025825500000    1.420025825500000    0.046244919300079    0.047701522707939    0.050667472183704
10    1.420025825500000    1.420025825500000    4.260077476500000    0.046245560050011    0.047699406743050   -0.050663866102695
11    1.420025825500000    4.260077476500000    1.420025825500000   -0.004435888491571   -0.004450590815395   -0.000003465625923
12    1.420025825500000    4.260077476500000    4.260077476500000   -0.004438784904778   -0.004455370828509    0.000000304040213
13    4.260077476500000    1.420025825500000    1.420025825500000   -0.002970874775201   -0.002958267228678   -0.000003043460310
14    4.260077476500000    1.420025825500000    4.260077476500000   -0.002974207513034   -0.002961478894576    0.000002723754733
15    4.260077476500000    4.260077476500000    1.420025825500000    0.047685265541077    0.046226471662521   -0.050672955811024
16    4.260077476500000    4.260077476500000    4.260077476500000    0.047685664147139    0.046227131038904    0.050670776516199
