# Structure data of Cr (2x2x2 conventional) 

16 atoms
1 atom types

0.0 5.7480506897 xlo xhi
0.0 5.7480506897 ylo yhi
0.0 5.7480506897 zlo zhi
0.000000    0.000000    0.000000   xy xz yz

Masses

1 51.9961  # Cr

Atoms  # atomic

1 1 0.0 0.0 0.0
2 1 0.0 0.0 2.8740253449
3 1 0.0 2.8740253449 0.0
4 1 0.0 2.8740253449 2.8740253449
5 1 2.8740253449 0.0 0.0
6 1 2.8740253449 0.0 2.8740253449
7 1 2.8740253449 2.8740253449 0.0
8 1 2.8740253449 2.8740253449 2.8740253449
9 1 1.4370126724 1.4370126724 1.4370126724
10 1 1.4370126724 1.4370126724 4.3110380173
11 1 1.4370126724 4.3110380173 1.4370126724
12 1 1.4370126724 4.3110380173 4.3110380173
13 1 4.3110380173 1.4370126724 1.4370126724
14 1 4.3110380173 1.4370126724 4.3110380173
15 1 4.3110380173 4.3110380173 1.4370126724
16 1 4.3110380173 4.3110380173 4.3110380173
