# Structure data of Mo (2x2x2 conventional) 

16 atoms
1 atom types

0.0 6.3352360725 xlo xhi
0.0 6.3352360725 ylo yhi
0.0 6.3352360725 zlo zhi
0.000000    0.000000    0.000000   xy xz yz

Masses

1 95.94  # Mo

Atoms  # atomic

1 1 0.0 0.0 0.0
2 1 0.0 0.0 3.1676180362
3 1 0.0 3.1676180362 0.0
4 1 0.0 3.1676180362 3.1676180362
5 1 3.1676180362 0.0 0.0
6 1 3.1676180362 0.0 3.1676180362
7 1 3.1676180362 3.1676180362 0.0
8 1 3.1676180362 3.1676180362 3.1676180362
9 1 1.5838090181 1.5838090181 1.5838090181
10 1 1.5838090181 1.5838090181 4.7514270544
11 1 1.5838090181 4.7514270544 1.5838090181
12 1 1.5838090181 4.7514270544 4.7514270544
13 1 4.7514270544 1.5838090181 1.5838090181
14 1 4.7514270544 1.5838090181 4.7514270544
15 1 4.7514270544 4.7514270544 1.5838090181
16 1 4.7514270544 4.7514270544 4.7514270544
