ITEM: TIMESTEP
0
ITEM: NUMBER OF ATOMS
64
ITEM: BOX BOUNDS xy xz yz pp pp pp
0.0000000000000000e+00 1.0800000000000001e+01 0.0000000000000000e+00
0.0000000000000000e+00 1.0800000000000001e+01 0.0000000000000000e+00
0.0000000000000000e+00 1.0800000000000001e+01 0.0000000000000000e+00
ITEM: ATOMS id xu yu zu fx fy fz 
1   -0.039999999999999    0.000000000000000    0.000000000000000    0.178591072559357    0.272764742374420   -0.266904383897781 
2    0.000000000000000    0.000000000000000    5.400000000000000    0.002279533771798   -0.002394485985860   -0.025989761576056 
3    0.000000000000000    2.700000000000000    2.700000000000000    0.001731711090542   -0.003591875778511   -0.002422847552225 
4    0.000000000000000    2.700000000000000    8.100000000000000   -0.001307876780629   -0.001797377830371    0.017909837886691 
5    0.000000000000000    5.400000000000000    0.000000000000000   -0.002032422693446   -0.005610270425677   -0.275948524475098 
6    0.000000000000000    5.400000000000000    5.400000000000000   -0.005102084483951    0.000970266642980   -0.016086155548692 
7    0.000000000000000    8.100000000000000    2.700000000000000    0.002639144426212    0.004098380915821    0.002135743619874 
8    0.000000000000000    8.100000000000000    8.100000000000000    0.000813751947135    0.001892486587167    0.012753644958138 
9    1.350000000000000    1.350000000000000    1.350000000000000   -0.129324898123741    0.060768865048885   -0.301048576831818 
10    1.350000000000000    1.350000000000000    6.750000000000000   -0.001587517210282   -0.001198591431603    0.005456649232656 
11    1.350000000000000    4.050000000000000    4.050000000000000   -0.000023137536118    0.000327089655912    0.012925273738801 
12    1.350000000000000    4.050000000000000    9.449999999999999    0.012002284638584    0.004459676798433    0.266901850700378 
13    1.350000000000000    6.750000000000000    1.350000000000000   -0.001808626577258    0.000426660670200   -0.014533910900354 
14    1.350000000000000    6.750000000000000    6.750000000000000    0.001184350461699    0.003420698223636    0.000712792796548 
15    1.350000000000000    9.449999999999999    4.050000000000000    0.070657514035702    0.075472846627235   -0.068759828805923 
16    1.350000000000000    9.449999999999999    9.449999999999999    0.011124918237329   -0.003162245033309    0.264232963323593 
17    2.700000000000000    0.000000000000000    2.660000000000000   -0.013106215745211   -0.003355107037351    0.448785990476608 
18    2.700000000000000    0.000000000000000    8.100000000000000   -0.000251965626376    0.000729285296984    0.004443349316716 
19    2.700000000000000    2.700000000000000    0.000000000000000   -0.023256571963429    0.000294064113405   -0.277116447687149 
20    2.700000000000000    2.700000000000000    5.400000000000000   -0.002904410474002   -0.001200842205435   -0.019861349835992 
21    2.700000000000000    5.400000000000000    2.700000000000000   -0.000993238762021    0.001125432550907   -0.010398094542325 
22    2.700000000000000    5.400000000000000    8.100000000000000    0.003025371814147   -0.000534526421688    0.005069348495454 
23    2.700000000000000    8.100000000000000    0.000000000000000    0.000087623448053   -0.035128723829985   -0.273679077625275 
24    2.700000000000000    8.100000000000000    5.400000000000000   -0.001326631405391    0.006275244057178   -0.022247236222029 
25    4.050000000000000    1.350000000000000    4.050000000000000   -0.084674917161465   -0.086608864367008   -0.076681904494762 
26    4.050000000000000    1.350000000000000    9.449999999999999   -0.008962848223746    0.006634989287704    0.263615876436234 
27    4.050000000000000    4.050000000000000    1.350000000000000   -0.000018619202820    0.001402767724358   -0.021828813478351 
28    4.050000000000000    4.050000000000000    6.750000000000000   -0.003251963295043   -0.003051898675039    0.001505155814812 
29    4.050000000000000    6.750000000000000    4.050000000000000   -0.001904300181195    0.000406092731282    0.013130064122379 
30    4.050000000000000    6.750000000000000    9.449999999999999    0.000647548644338   -0.001571350148879    0.265130370855331 
31    4.050000000000000    9.449999999999999    1.350000000000000    0.049439951777458   -0.075139038264751   -0.151225566864014 
32    4.050000000000000    9.449999999999999    6.750000000000000   -0.000006661921361    0.002770412946120    0.005793728865683 
33    5.400000000000000    0.000000000000000    0.000000000000000    0.009960301220417   -0.001181925414130   -0.272442579269409 
34    5.400000000000000    0.000000000000000    5.400000000000000   -0.003469456918538    0.001983016030863   -0.023199880495667 
35    5.400000000000000    2.700000000000000    2.700000000000000   -0.000611223629676    0.001409542979673    0.001788303256035 
36    5.400000000000000    2.700000000000000    8.100000000000000    0.000858495943248    0.001040356932208    0.007902003824711 
37    5.400000000000000    5.400000000000000    0.000000000000000    0.005378406494856   -0.007684698794037   -0.256692230701447 
38    5.400000000000000    5.400000000000000    5.400000000000000   -0.001132951118052    0.000248406024184   -0.012480819597840 
39    5.400000000000000    8.100000000000000    2.700000000000000   -0.001735847094096    0.003109781537205   -0.003478888655081 
40    5.400000000000000    8.100000000000000    8.100000000000000    0.003516900353134    0.001012336113490    0.017330359667540 
41    6.750000000000000    1.350000000000000    1.350000000000000    0.002892212709412    0.001426144386642   -0.014999167062342 
42    6.750000000000000    1.350000000000000    6.750000000000000   -0.003572576912120   -0.001019099261612    0.000437507609604 
43    6.750000000000000    4.050000000000000    4.050000000000000   -0.001681517227553   -0.001088344724849    0.009717482142150 
44    6.750000000000000    4.050000000000000    9.449999999999999   -0.009989460930228   -0.004564704839140    0.251114249229431 
45    6.750000000000000    6.750000000000000    1.350000000000000   -0.002904617926106   -0.004146785009652   -0.019139548763633 
46    6.750000000000000    6.750000000000000    6.750000000000000   -0.000780007627327   -0.002714870963246    0.001814657007344 
47    6.750000000000000    9.449999999999999    4.050000000000000    0.001596104586497   -0.001274294685572    0.016030348837376 
48    6.750000000000000    9.449999999999999    9.449999999999999    0.002253560582176    0.012199896387756    0.269252747297287 
49    8.100000000000000    0.000000000000000    2.700000000000000    0.000980578479357    0.001439927844331    0.001420609652996 
50    8.100000000000000    0.000000000000000    8.100000000000000    0.002361928578466   -0.001762599684298    0.015952952206135 
51    8.100000000000000    2.700000000000000    0.000000000000000    0.001121899927966   -0.004081563558429   -0.270620018243790 
52    8.100000000000000    2.700000000000000    5.400000000000000    0.000350346730556   -0.001255269628018   -0.017810212448239 
53    8.100000000000000    5.400000000000000    2.700000000000000    0.000745695608202    0.001594822970219   -0.001961283385754 
54    8.100000000000000    5.400000000000000    8.100000000000000    0.000404320162488    0.000929939851630    0.010710611008108 
55    8.100000000000000    8.100000000000000    0.000000000000000   -0.012435157783329   -0.004057939164340   -0.258495062589645 
56    8.100000000000000    8.100000000000000    5.400000000000000   -0.002984221559018    0.005067720077932   -0.017754411324859 
57    9.449999999999999    1.350000000000000    4.050000000000000   -0.000770086771809    0.002233169507235    0.018037715926766 
58    9.449999999999999    1.350000000000000    9.449999999999999   -0.009347125887871    0.011080129072070    0.276452809572220 
59    9.449999999999999    4.050000000000000    1.350000000000000    0.000346244400134   -0.000480060552945   -0.009868173860013 
60    9.449999999999999    4.050000000000000    6.750000000000000   -0.000590189592913    0.000661012425553    0.003599155927077 
61    9.449999999999999    6.750000000000000    4.050000000000000    0.000272426899755   -0.002798225730658    0.014076340012252 
62    9.449999999999999    6.750000000000000    9.449999999999999   -0.003873880021274   -0.002012291457504    0.271393299102783 
63    9.449999999999999    9.449999999999999    1.350000000000000   -0.008839171379805   -0.009879303164780   -0.001448130467907 
64    9.449999999999999    9.449999999999999    6.750000000000000    0.004077020566911    0.002433465095237    0.008877473883331 
