ITEM: TIMESTEP
0
ITEM: NUMBER OF ATOMS
64
ITEM: BOX BOUNDS xy xz yz pp pp pp
0.0000000000000000e+00 1.0800000000000001e+01 0.0000000000000000e+00
0.0000000000000000e+00 1.0800000000000001e+01 0.0000000000000000e+00
0.0000000000000000e+00 1.0800000000000001e+01 0.0000000000000000e+00
ITEM: ATOMS id xu yu zu fx fy fz 
1    0.040000000000000    0.000000000000000    0.000000000000000   -0.167344853281975   -0.272371709346771   -0.288636684417725 
2    0.000000000000000    0.000000000000000    5.400000000000000   -0.003421038389206    0.004081675317138   -0.020879134535789 
3    0.040000000000000    2.700000000000000    2.700000000000000   -0.455320715904236    0.019979730248451   -0.017606778070331 
4    0.000000000000000    2.700000000000000    8.100000000000000   -0.000246709008934   -0.000755824614316    0.011692229658365 
5    0.000000000000000    5.400000000000000    0.000000000000000    0.007769605144858    0.002007640898228   -0.243409901857376 
6    0.000000000000000    5.400000000000000    5.400000000000000   -0.004208325408399    0.003511322662234   -0.016849005594850 
7    0.000000000000000    8.100000000000000    2.700000000000000    0.002485963981599    0.001928924233653   -0.002904610708356 
8    0.000000000000000    8.100000000000000    8.100000000000000   -0.000586304639000    0.001078513800167    0.011492682620883 
9    1.350000000000000    1.350000000000000    1.350000000000000    0.050656743347645   -0.002196278190240   -0.016945552080870 
10    1.350000000000000    1.350000000000000    6.750000000000000   -0.002821121364832   -0.004597449675202    0.005338813643903 
11    1.350000000000000    4.050000000000000    4.050000000000000    0.118101350963116    0.093807347118855    0.124969564378262 
12    1.350000000000000    4.050000000000000    9.449999999999999   -0.015785422176123   -0.006913001183420    0.265229493379593 
13    1.350000000000000    6.750000000000000    1.350000000000000   -0.001362079172395   -0.005443374626338   -0.012510497123003 
14    1.350000000000000    6.750000000000000    6.750000000000000    0.001284826896153   -0.001532122842036    0.000545339484233 
15    1.350000000000000    9.449999999999999    4.050000000000000    0.002023104578257   -0.000515987747349    0.020381106063724 
16    1.350000000000000    9.449999999999999    9.449999999999999   -0.002608066657558    0.000974692578893    0.270540595054626 
17    2.700000000000000    0.000000000000000    2.700000000000000    0.004906512796879   -0.006977052427828   -0.000906146713533 
18    2.700000000000000    0.000000000000000    8.100000000000000    0.000533225189429   -0.001719510648400    0.010682736523449 
19    2.700000000000000    2.700000000000000    0.000000000000000    0.016725104302168    0.019755924120545   -0.270026236772537 
20    2.700000000000000    2.700000000000000    5.400000000000000    0.004516262561083   -0.000963974569459   -0.011642790399492 
21    2.700000000000000    5.400000000000000    2.700000000000000   -0.001178246922791    0.002385504078120   -0.005260527133942 
22    2.700000000000000    5.400000000000000    8.100000000000000    0.000947247550357   -0.000251280493103    0.003409514669329 
23    2.700000000000000    8.100000000000000    0.000000000000000   -0.017867024987936    0.024482592940331   -0.270998567342758 
24    2.700000000000000    8.100000000000000    5.400000000000000   -0.001248497865163   -0.000332313822582   -0.015006888657808 
25    4.050000000000000    1.350000000000000    4.050000000000000   -0.001588058192283    0.000604575907346    0.015205888077617 
26    4.050000000000000    1.350000000000000    9.449999999999999   -0.000142822391354    0.019395612180233    0.258021891117096 
27    4.050000000000000    4.050000000000000    1.350000000000000    0.000010822875083    0.001292651053518   -0.010994764044881 
28    4.050000000000000    4.050000000000000    6.750000000000000   -0.001011001761071   -0.002071594120935    0.005084421485662 
29    4.050000000000000    6.750000000000000    4.050000000000000    0.001697425730526    0.001388120814227    0.012986341491342 
30    4.050000000000000    6.750000000000000    9.449999999999999    0.002609752351418    0.004980478435755    0.260403603315353 
31    4.050000000000000    9.449999999999999    1.350000000000000    0.004173151217401   -0.000748660997488   -0.006359480321407 
32    4.050000000000000    9.449999999999999    6.750000000000000   -0.001915491069667   -0.001432550488971    0.001596659189090 
33    5.400000000000000    0.000000000000000    0.000000000000000    0.020093889907002    0.015340940095484   -0.256827652454376 
34    5.400000000000000    0.000000000000000    5.400000000000000   -0.000972094014287   -0.001141905086115   -0.013547237031162 
35    5.400000000000000    2.700000000000000    2.700000000000000   -0.002981699770316   -0.001463118474931   -0.005012422334403 
36    5.400000000000000    2.700000000000000    8.100000000000000   -0.000355598516762    0.001098377164453    0.009323080070317 
37    5.400000000000000    5.400000000000000    0.000000000000000   -0.003352034837008   -0.011550994589925   -0.242737352848053 
38    5.400000000000000    5.400000000000000    5.400000000000000    0.000618501333520   -0.000601318955887   -0.014358149841428 
39    5.400000000000000    8.100000000000000    2.700000000000000    0.000112552719656    0.002354484517127   -0.001687529962510 
40    5.400000000000000    8.100000000000000    8.100000000000000   -0.002603412140161    0.000275905942544    0.007225194014609 
41    6.750000000000000    1.350000000000000    1.350000000000000   -0.000126332917716    0.002351985080168   -0.012815291061997 
42    6.750000000000000    1.350000000000000    6.750000000000000   -0.001389621407725    0.001075131702237    0.002190141472965 
43    6.750000000000000    4.050000000000000    4.050000000000000   -0.003426786279306    0.002329486189410    0.015640279278159 
44    6.750000000000000    4.050000000000000    9.449999999999999   -0.001995694357902    0.001523814047687    0.258674323558807 
45    6.750000000000000    6.750000000000000    1.350000000000000   -0.001005859929137    0.002231678226963   -0.021045399829745 
46    6.750000000000000    6.750000000000000    6.750000000000000   -0.002262206748128    0.000190162580111    0.004675711039454 
47    6.750000000000000    9.449999999999999    4.050000000000000    0.001103751477785    0.003331888932735    0.015120484866202 
48    6.750000000000000    9.449999999999999    9.449999999999999   -0.001299016759731   -0.013012715615332    0.254492163658142 
49    8.100000000000000    0.000000000000000    2.700000000000000    0.008081646636128    0.001780298654921   -0.014146654866636 
50    8.100000000000000    0.000000000000000    8.100000000000000    0.000401121535106   -0.000472820858704    0.011586364358664 
51    8.100000000000000    2.700000000000000    0.000000000000000   -0.013051494024694    0.020914981141686   -0.258063703775406 
52    8.100000000000000    2.700000000000000    5.400000000000000    0.003288693726063   -0.000876511039678   -0.020267646759748 
53    8.100000000000000    5.400000000000000    2.700000000000000   -0.000551273114979   -0.004714839160442   -0.002420149976388 
54    8.100000000000000    5.400000000000000    8.100000000000000   -0.002345621120185    0.000817268504761    0.014618911780417 
55    8.100000000000000    8.100000000000000    0.000000000000000   -0.005021704360843    0.021066911518574   -0.256511807441711 
56    8.100000000000000    8.100000000000000    5.400000000000000    0.001436593360268    0.000316752149956   -0.014660670422018 
57    9.449999999999999    1.350000000000000    4.050000000000000    0.100796915590763    0.084962934255600   -0.058494094759226 
58    9.449999999999999    1.350000000000000    9.449999999999999    0.002824130933732   -0.005961738061160    0.270602256059647 
59    9.449999999999999    4.050000000000000    1.350000000000000    0.028256658464670   -0.015778889879584   -0.006693679839373 
60    9.449999999999999    4.050000000000000    6.750000000000000    0.000130664979224    0.001517330878414    0.001488753128797 
61    9.449999999999999    6.750000000000000    4.050000000000000    0.000137460607220   -0.003102180082351    0.015746688470244 
62    9.449999999999999    6.750000000000000    9.449999999999999    0.000417252304032    0.008961149491370    0.265428215265274 
63    9.449999999999999    9.449999999999999    1.350000000000000    0.033478107303381    0.057056795805693   -0.150029584765434 
64    9.449999999999999    9.449999999999999    6.750000000000000    0.002153914188966    0.003848818363622    0.003189526265487 
