ITEM: TIMESTEP
0
ITEM: NUMBER OF ATOMS
64
ITEM: BOX BOUNDS xy xz yz pp pp pp
0.0000000000000000e+00 1.0800000000000001e+01 0.0000000000000000e+00
0.0000000000000000e+00 1.0800000000000001e+01 0.0000000000000000e+00
0.0000000000000000e+00 1.0800000000000001e+01 0.0000000000000000e+00
ITEM: ATOMS id xu yu zu fx fy fz 
1    0.040000000000000    0.000000000000000    0.000000000000000   -0.190270647406578   -0.262894630432129   -0.270052969455719 
2    0.000000000000000    0.000000000000000    5.400000000000000    0.002086902270094   -0.001027388265356   -0.014667223207653 
3   -0.039999999999999    2.700000000000000    2.700000000000000    0.452967077493668   -0.008488966152072   -0.009371169842780 
4    0.000000000000000    2.700000000000000    8.100000000000000    0.001473576878197    0.002913782373071    0.010795421898365 
5    0.000000000000000    5.400000000000000    0.000000000000000    0.010187271051109   -0.001422571018338   -0.278522372245789 
6    0.000000000000000    5.400000000000000    5.400000000000000    0.006764823105186   -0.003581743920222   -0.022937675938010 
7    0.000000000000000    8.100000000000000    2.700000000000000    0.000262332148850    0.000308621209115   -0.006539511960000 
8    0.000000000000000    8.100000000000000    8.100000000000000    0.001216555363499    0.000280601176200    0.012391973286867 
9    1.350000000000000    1.350000000000000    1.350000000000000   -0.008935445919633    0.064479321241379    0.012740252539515 
10    1.350000000000000    1.350000000000000    6.750000000000000   -0.000594064826146   -0.000728135986719    0.003981562796980 
11    1.350000000000000    4.050000000000000    4.050000000000000   -0.108223438262939   -0.079243421554565   -0.062881410121918 
12    1.350000000000000    4.050000000000000    9.449999999999999   -0.008488177321851   -0.009829783812165    0.258453756570816 
13    1.350000000000000    6.750000000000000    1.350000000000000    0.004751992411911    0.001628341851756   -0.019686333835125 
14    1.350000000000000    6.750000000000000    6.750000000000000   -0.001029754057527   -0.006224636919796    0.006410920992494 
15    1.350000000000000    9.449999999999999    4.050000000000000    0.002681680023670   -0.000085571693489    0.011629067361355 
16    1.350000000000000    9.449999999999999    9.449999999999999   -0.001427361159585    0.001149266143329    0.268979519605637 
17    2.700000000000000    0.000000000000000    2.700000000000000    0.007611722685397    0.005367663223296   -0.002292304532602 
18    2.700000000000000    0.000000000000000    8.100000000000000    0.000369795336155    0.000097029114841    0.003031807020307 
19    2.700000000000000    2.700000000000000    0.000000000000000   -0.002815793966874   -0.001250784611329   -0.252813458442688 
20    2.700000000000000    2.700000000000000    5.400000000000000   -0.003268927102908    0.000554987287614   -0.014751787297428 
21    2.700000000000000    5.400000000000000    2.700000000000000   -0.003450684249401   -0.006643227767199   -0.001372304512188 
22    2.700000000000000    5.400000000000000    8.100000000000000   -0.000037161389628    0.001218330580741    0.008836684748530 
23    2.700000000000000    8.100000000000000    0.000000000000000   -0.008354396559298    0.009674050845206   -0.262749522924423 
24    2.700000000000000    8.100000000000000    5.400000000000000   -0.001852180343121    0.001129689626396   -0.014540214091539 
25    4.050000000000000    1.350000000000000    4.050000000000000    0.003535727970302   -0.004854072816670    0.017733694985509 
26    4.050000000000000    1.350000000000000    9.449999999999999   -0.010742506012321    0.006182840559632    0.262614220380783 
27    4.050000000000000    4.050000000000000    1.350000000000000   -0.005905250553042   -0.003864719299600   -0.029002588242292 
28    4.050000000000000    4.050000000000000    6.750000000000000   -0.000131688546389   -0.003333668457344    0.003495310666040 
29    4.050000000000000    6.750000000000000    4.050000000000000   -0.000375694391550   -0.001146542839706    0.014327852055430 
30    4.050000000000000    6.750000000000000    9.449999999999999   -0.002358275931329    0.013979889452457    0.262971013784409 
31    4.050000000000000    9.449999999999999    1.350000000000000    0.001645748736337    0.002133696107194   -0.020692015066743 
32    4.050000000000000    9.449999999999999    6.750000000000000    0.001780296675861    0.001838935771957    0.003402268746868 
33    5.400000000000000    0.000000000000000    0.000000000000000    0.003668905002996    0.001806738204323   -0.251882582902908 
34    5.400000000000000    0.000000000000000    5.400000000000000   -0.004653370939195    0.000481783295982   -0.017322763800621 
35    5.400000000000000    2.700000000000000    2.700000000000000    0.002338160295039    0.000894171651453   -0.008722649887204 
36    5.400000000000000    2.700000000000000    8.100000000000000   -0.004079386591911   -0.003993920981884    0.018710028380156 
37    5.400000000000000    5.400000000000000    0.000000000000000   -0.000624735490419    0.010781746357679   -0.253015667200089 
38    5.400000000000000    5.400000000000000    5.400000000000000   -0.000446217309218    0.000142389850225   -0.016580749303102 
39    5.400000000000000    8.100000000000000    2.700000000000000   -0.000362288701581   -0.002461474854499   -0.006393978837878 
40    5.400000000000000    8.100000000000000    8.100000000000000   -0.002344327745959   -0.001717282808386    0.014780248515308 
41    6.750000000000000    1.350000000000000    1.350000000000000   -0.000295551668387   -0.003046578727663   -0.020348386839032 
42    6.750000000000000    1.350000000000000    6.750000000000000    0.000858832499944    0.002016108017415    0.004159935284406 
43    6.750000000000000    4.050000000000000    4.050000000000000    0.000194992157049   -0.002424159785733    0.016335342079401 
44    6.750000000000000    4.050000000000000    9.449999999999999    0.000218322631554    0.014736378565431    0.262417137622833 
45    6.750000000000000    6.750000000000000    1.350000000000000    0.002349986694753    0.003192249219865   -0.018770683556795 
46    6.750000000000000    6.750000000000000    6.750000000000000    0.000879806175362   -0.001141401007771    0.002335238503292 
47    6.750000000000000    9.449999999999999    4.050000000000000    0.000797766668256   -0.002576779341325    0.010973095893860 
48    6.750000000000000    9.449999999999999    9.449999999999999    0.001282372511923   -0.006340840365738    0.245605915784836 
49    8.100000000000000    0.000000000000000    2.700000000000000    0.002769826445729   -0.002787005389109   -0.002835141494870 
50    8.100000000000000    0.000000000000000    8.100000000000000    0.002015011152253   -0.000557930208743    0.016080310568213 
51    8.100000000000000    2.700000000000000    0.000000000000000   -0.014084305614233    0.011558610014617   -0.281286209821701 
52    8.100000000000000    2.700000000000000    5.400000000000000   -0.004505321383476   -0.001311504049227   -0.013859784230590 
53    8.100000000000000    5.400000000000000    2.700000000000000   -0.002708012470976    0.001122040790506   -0.005314078647643 
54    8.100000000000000    5.400000000000000    8.100000000000000   -0.001727291848511   -0.002120136748999    0.012584211304784 
55    8.100000000000000    8.100000000000000    0.000000000000000    0.007781945634633    0.013493997976184   -0.253630429506302 
56    8.100000000000000    8.100000000000000    5.400000000000000    0.000550849887077    0.000640667683911   -0.013929760083556 
57    9.449999999999999    1.350000000000000    4.050000000000000   -0.108775772154331   -0.101982027292252    0.128993257880211 
58    9.449999999999999    1.350000000000000    9.449999999999999   -0.009136547334492    0.008193049579859    0.258509427309036 
59    9.449999999999999    4.050000000000000    1.350000000000000   -0.061883941292763    0.054046723991632   -0.102722793817520 
60    9.449999999999999    4.050000000000000    6.750000000000000    0.003019641852006    0.002700274111703    0.010880100540817 
61    9.449999999999999    6.750000000000000    4.050000000000000   -0.004015152808279    0.002526131225750    0.018015842884779 
62    9.449999999999999    6.750000000000000    9.449999999999999    0.000220970265218   -0.009352223947644    0.266562730073929 
63    9.449999999999999    9.449999999999999    1.350000000000000    0.018460217863321    0.074507072567940   -0.141709208488464 
64    9.449999999999999    9.449999999999999    6.750000000000000    0.001180144725367    0.001557950512506   -0.002946569584310 
