ITEM: TIMESTEP
0
ITEM: NUMBER OF ATOMS
64
ITEM: BOX BOUNDS xy xz yz pp pp pp
0.0000000000000000e+00 1.0800000000000001e+01 0.0000000000000000e+00
0.0000000000000000e+00 1.0800000000000001e+01 0.0000000000000000e+00
0.0000000000000000e+00 1.0800000000000001e+01 0.0000000000000000e+00
ITEM: ATOMS id xu yu zu fx fy fz 
1    0.040000000000000    0.040000000000000    0.000000000000000   -0.458228170871735   -0.461465924978256   -0.305995434522629 
2    0.000000000000000    0.000000000000000    5.400000000000000   -0.001920453272760   -0.000438133603893   -0.013377277180552 
3    0.000000000000000    2.700000000000000    2.700000000000000   -0.006008845288306    0.005325694568455    0.003794265212491 
4    0.000000000000000    2.700000000000000    8.100000000000000   -0.004552356433123   -0.005921413656324    0.015743175521493 
5    0.000000000000000    5.400000000000000    0.000000000000000    0.008421581238508   -0.007289166562259   -0.252985596656799 
6    0.000000000000000    5.400000000000000    5.400000000000000    0.000303323758999   -0.000065638058004   -0.011471035890281 
7    0.000000000000000    8.100000000000000    2.700000000000000   -0.002838703105226    0.005060353316367   -0.013647600077093 
8    0.000000000000000    8.100000000000000    8.100000000000000   -0.001663717790507   -0.000398968375521    0.016817903146148 
9    1.350000000000000    1.350000000000000    1.350000000000000    0.121956668794155    0.157310962677002    0.047692570835352 
10    1.350000000000000    1.350000000000000    6.750000000000000    0.000393136491766    0.000365274405340    0.003473490476608 
11    1.350000000000000    4.050000000000000    4.050000000000000    0.002917292527854   -0.000470426282845    0.011804421432316 
12    1.350000000000000    4.050000000000000    9.449999999999999   -0.001035046065226    0.001863353885710    0.271347343921661 
13    1.350000000000000    6.750000000000000    1.350000000000000    0.001791401649825    0.001010544016026   -0.014629947952926 
14    1.350000000000000    6.750000000000000    6.750000000000000   -0.000184751930647    0.002916557015851    0.005649059079587 
15    1.350000000000000    9.449999999999999    4.050000000000000    0.000907968671527   -0.003065563971177    0.015442772768438 
16    1.350000000000000    9.449999999999999    9.449999999999999    0.004736567847431   -0.002247216179967    0.263399362564087 
17    2.700000000000000    0.000000000000000    2.700000000000000    0.007235907949507   -0.001938458532095    0.000676451134495 
18    2.700000000000000    0.000000000000000    8.100000000000000    0.002240524394438   -0.001285958103836    0.016823338344693 
19    2.700000000000000    2.700000000000000    0.000000000000000    0.020481225103140    0.017507189884782   -0.263040065765381 
20    2.700000000000000    2.700000000000000    5.400000000000000   -0.000516818836331   -0.001544133410789   -0.014615105465055 
21    2.700000000000000    5.400000000000000    2.700000000000000    0.001031099585816   -0.002381380181760   -0.005427127238363 
22    2.700000000000000    5.400000000000000    8.100000000000000   -0.003247021930292   -0.003480206476524    0.022704552859068 
23    2.700000000000000    8.100000000000000    0.000000000000000    0.010562307201326    0.009783529676497   -0.255970686674118 
24    2.700000000000000    8.100000000000000    5.400000000000000   -0.000864499248564    0.000945016625337   -0.011597870849073 
25    4.050000000000000    1.350000000000000    4.050000000000000    0.000541091838386   -0.001093961647712    0.011686413548887 
26    4.050000000000000    1.350000000000000    9.449999999999999   -0.003485837252811    0.003356793662533    0.255335390567780 
27    4.050000000000000    4.050000000000000    1.350000000000000   -0.000252470810665    0.003518447047099   -0.035519234836102 
28    4.050000000000000    4.050000000000000    6.750000000000000   -0.000606945715845    0.000283903878881    0.004693137947470 
29    4.050000000000000    6.750000000000000    4.050000000000000    0.000603406166192   -0.001565419137478    0.013289759866893 
30    4.050000000000000    6.750000000000000    9.449999999999999   -0.000240537206992   -0.006666581612080    0.270453602075577 
31    4.050000000000000    9.449999999999999    1.350000000000000    0.000338252168149   -0.003733385587111   -0.011472850106657 
32    4.050000000000000    9.449999999999999    6.750000000000000   -0.001588200218976    0.000329198373947    0.004948152229190 
33    5.400000000000000    0.000000000000000    0.000000000000000    0.013384699821472   -0.009173165075481   -0.263462394475937 
34    5.400000000000000    0.000000000000000    5.400000000000000   -0.003007210791111    0.004467444960028   -0.013202522881329 
35    5.400000000000000    2.700000000000000    2.700000000000000   -0.004329452291131   -0.001190128037706   -0.012220941483974 
36    5.400000000000000    2.700000000000000    8.100000000000000   -0.001661269227043   -0.001015422516502    0.015134916640818 
37    5.400000000000000    5.400000000000000    0.000000000000000   -0.000104436367110    0.000850618351251   -0.273574739694595 
38    5.400000000000000    5.400000000000000    5.400000000000000    0.002563826274127   -0.000712450069841   -0.012842837721109 
39    5.400000000000000    8.100000000000000    2.700000000000000   -0.004176918882877   -0.004034376703203   -0.002485252916813 
40    5.400000000000000    8.100000000000000    8.100000000000000    0.002644409658387    0.000057412940805    0.031041374430060 
41    6.750000000000000    1.350000000000000    1.350000000000000    0.001915392233059   -0.001390272052959   -0.010673264041543 
42    6.750000000000000    1.350000000000000    6.750000000000000   -0.000781201466452   -0.001132417353801    0.005506388843060 
43    6.750000000000000    4.050000000000000    4.050000000000000    0.001532627502456   -0.001672863261774    0.015097262337804 
44    6.750000000000000    4.050000000000000    9.449999999999999    0.011629561893642    0.000865582784172    0.262784510850906 
45    6.750000000000000    6.750000000000000    1.350000000000000   -0.000274685793556    0.000143301469507   -0.019140221178532 
46    6.750000000000000    6.750000000000000    6.750000000000000    0.000962571415585    0.003818417200819    0.005505511537194 
47    6.750000000000000    9.449999999999999    4.050000000000000   -0.001071188249625    0.000525344512425    0.017019813880324 
48    6.750000000000000    9.449999999999999    9.449999999999999    0.002864285605028    0.005085443146527    0.260692328214645 
49    8.100000000000000    0.000000000000000    2.700000000000000    0.006331659853458   -0.001737542101182   -0.019282110035419 
50    8.100000000000000    0.000000000000000    8.100000000000000   -0.000856993428897    0.001881149713881    0.016313016414642 
51    8.100000000000000    2.700000000000000    0.000000000000000    0.011321037076414    0.007685217540711   -0.270436644554138 
52    8.100000000000000    2.700000000000000    5.400000000000000    0.000236922685872   -0.001210700836964   -0.016054755076766 
53    8.100000000000000    5.400000000000000    2.700000000000000   -0.002832385711372   -0.001403615460731   -0.007507408503443 
54    8.100000000000000    5.400000000000000    8.100000000000000    0.005096850916743   -0.000518336310051    0.019073277711868 
55    8.100000000000000    8.100000000000000    0.000000000000000    0.032556530088186    0.033023811876774   -0.272117018699646 
56    8.100000000000000    8.100000000000000    5.400000000000000    0.001955766230822    0.000957414857112   -0.013046654872596 
57    9.449999999999999    1.350000000000000    4.050000000000000    0.000601772568189    0.000284121430013    0.013823937624693 
58    9.449999999999999    1.350000000000000    9.449999999999999   -0.003456720383838   -0.000813892402221    0.266438722610474 
59    9.449999999999999    4.050000000000000    1.350000000000000   -0.001984736183658   -0.001895039691590   -0.017650565132499 
60    9.449999999999999    4.050000000000000    6.750000000000000   -0.000917315541301    0.000514078070410    0.005865926388651 
61    9.449999999999999    6.750000000000000    4.050000000000000    0.000924124440644    0.000006187914096    0.015899270772934 
62    9.449999999999999    6.750000000000000    9.449999999999999   -0.003209319198504   -0.003471267642453    0.264319568872452 
63    9.449999999999999    9.449999999999999    1.350000000000000    0.139931440353394    0.145935595035553   -0.255014896392822 
64    9.449999999999999    9.449999999999999    6.750000000000000   -0.000882097054273    0.004881797824055    0.007629068102688 
