ITEM: TIMESTEP
0
ITEM: NUMBER OF ATOMS
64
ITEM: BOX BOUNDS xy xz yz pp pp pp
0.0000000000000000e+00 1.0800000000000001e+01 0.0000000000000000e+00
0.0000000000000000e+00 1.0800000000000001e+01 0.0000000000000000e+00
0.0000000000000000e+00 1.0800000000000001e+01 0.0000000000000000e+00
ITEM: ATOMS id xu yu zu fx fy fz 
1    0.040000000000000    0.000000000000000    0.000000000000000   -0.170671999454498   -0.276427328586578   -0.268896996974945 
2    0.000000000000000    0.000000000000000    5.400000000000000   -0.001867445884272   -0.003012714209035   -0.013901604339480 
3    0.000000000000000    2.660000000000000    2.700000000000000   -0.017379496246576    0.463648349046707   -0.012275031767786 
4    0.000000000000000    2.700000000000000    8.100000000000000    0.003070073900744    0.000816792715341    0.012782892212272 
5    0.000000000000000    5.400000000000000    0.000000000000000    0.021440157666802   -0.005861906800419   -0.257478803396225 
6    0.000000000000000    5.400000000000000    5.400000000000000   -0.002277563326061   -0.000110383014544   -0.020917037501931 
7    0.000000000000000    8.100000000000000    2.700000000000000   -0.001240017707460   -0.000880250066984   -0.008739642798901 
8    0.000000000000000    8.100000000000000    8.100000000000000   -0.000884650740772   -0.000807619013358    0.007127370685339 
9    1.350000000000000    1.350000000000000    1.350000000000000    0.052351452410221    0.009273026138544   -0.026877097785473 
10    1.350000000000000    1.350000000000000    6.750000000000000   -0.000463801698061    0.001240888726898    0.001208434929140 
11    1.350000000000000    4.050000000000000    4.050000000000000   -0.084748804569244   -0.103535905480385   -0.068022333085537 
12    1.350000000000000    4.050000000000000    9.449999999999999    0.005818486679345   -0.000104537415609    0.262891829013824 
13    1.350000000000000    6.750000000000000    1.350000000000000   -0.001791191403754   -0.002706814557314   -0.008741569705307 
14    1.350000000000000    6.750000000000000    6.750000000000000    0.000055618955230   -0.000606900663115    0.000763351446949 
15    1.350000000000000    9.449999999999999    4.050000000000000    0.001956305233762    0.002945628482848    0.016755122691393 
16    1.350000000000000    9.449999999999999    9.449999999999999   -0.000454553111922    0.004359669052064    0.264091938734055 
17    2.700000000000000    0.000000000000000    2.700000000000000    0.008865647949278   -0.007280473597348   -0.004042456857860 
18    2.700000000000000    0.000000000000000    8.100000000000000   -0.000139968615258   -0.000158241178724    0.012468515895307 
19    2.700000000000000    2.700000000000000    0.000000000000000    0.007999720051885    0.013974321074784   -0.284275680780411 
20    2.700000000000000    2.700000000000000    5.400000000000000    0.003649662015960    0.002839093795046   -0.011892551556230 
21    2.700000000000000    5.400000000000000    2.700000000000000   -0.002726891310886   -0.005417973734438   -0.009923069737852 
22    2.700000000000000    5.400000000000000    8.100000000000000    0.002165789715946    0.002540263347328    0.009253452531993 
23    2.700000000000000    8.100000000000000    0.000000000000000   -0.006628606002778    0.021196745336056   -0.272665917873383 
24    2.700000000000000    8.100000000000000    5.400000000000000   -0.002005305606872    0.000109799693746   -0.014378887601197 
25    4.050000000000000    1.350000000000000    4.050000000000000   -0.001115625025705    0.000486866949359    0.014917861670256 
26    4.050000000000000    1.350000000000000    9.449999999999999    0.003940883092582    0.008465965278447    0.253933608531952 
27    4.050000000000000    4.050000000000000    1.350000000000000   -0.000485922500957   -0.001879252609797   -0.012314455583692 
28    4.050000000000000    4.050000000000000    6.750000000000000   -0.001677019405179   -0.002140351571143   -0.001665943767875 
29    4.050000000000000    6.750000000000000    4.050000000000000    0.001373149920255   -0.000961232930422    0.013232282362878 
30    4.050000000000000    6.750000000000000    9.449999999999999   -0.002430993597955    0.002339328639209    0.267466694116592 
31    4.050000000000000    9.449999999999999    1.350000000000000    0.001123041962273    0.001234935480170   -0.017907956615090 
32    4.050000000000000    9.449999999999999    6.750000000000000    0.000898833619431   -0.001732929376885    0.001483320374973 
33    5.400000000000000    0.000000000000000    0.000000000000000    0.003543938975781   -0.003096922300756   -0.246256381273270 
34    5.400000000000000    0.000000000000000    5.400000000000000    0.000542161054909    0.002038210397586   -0.011660548858345 
35    5.400000000000000    2.700000000000000    2.700000000000000   -0.001522662001662    0.001519961864688   -0.000295293662930 
36    5.400000000000000    2.700000000000000    8.100000000000000    0.001551621244289    0.000844726979267    0.011679197661579 
37    5.400000000000000    5.400000000000000    0.000000000000000   -0.011871929280460    0.006499465554953   -0.255574494600296 
38    5.400000000000000    5.400000000000000    5.400000000000000    0.001643328112550    0.001779073500074   -0.013050624169409 
39    5.400000000000000    8.100000000000000    2.700000000000000    0.003531979862601    0.000753426807933   -0.006519398652017 
40    5.400000000000000    8.100000000000000    8.100000000000000   -0.000555615755729   -0.002512781880796    0.018304076045752 
41    6.750000000000000    1.350000000000000    1.350000000000000   -0.000001645716111    0.002658061683178   -0.021133083850145 
42    6.750000000000000    1.350000000000000    6.750000000000000    0.000246845971560   -0.002214210340753   -0.002582171699032 
43    6.750000000000000    4.050000000000000    4.050000000000000   -0.002725998172536    0.000980246230029    0.013872312381864 
44    6.750000000000000    4.050000000000000    9.449999999999999    0.007545424159616    0.009831232018769    0.263534247875214 
45    6.750000000000000    6.750000000000000    1.350000000000000   -0.004338978324085   -0.000925956061110   -0.026883073151112 
46    6.750000000000000    6.750000000000000    6.750000000000000    0.000677659176290    0.001843080739491    0.004775037989020 
47    6.750000000000000    9.449999999999999    4.050000000000000   -0.001397875370458    0.000529323471710    0.011470736004412 
48    6.750000000000000    9.449999999999999    9.449999999999999   -0.004770037718117   -0.013337738811970    0.264521062374115 
49    8.100000000000000    0.000000000000000    2.700000000000000    0.004229249898344   -0.002383164362982   -0.004272330086678 
50    8.100000000000000    0.000000000000000    8.100000000000000    0.000605891342275    0.002506105927750    0.011296832934022 
51    8.100000000000000    2.700000000000000    0.000000000000000   -0.011702257208526    0.036199327558279   -0.248438999056816 
52    8.100000000000000    2.700000000000000    5.400000000000000    0.002240536734462    0.000663024256937   -0.018400695174932 
53    8.100000000000000    5.400000000000000    2.700000000000000    0.001670776749961   -0.000941429228988    0.000268832722213 
54    8.100000000000000    5.400000000000000    8.100000000000000    0.002991381101310    0.003372808685526    0.014732501469553 
55    8.100000000000000    8.100000000000000    0.000000000000000    0.005996732972562    0.013955930247903   -0.267983376979828 
56    8.100000000000000    8.100000000000000    5.400000000000000    0.000124647951452    0.001522070378996   -0.017126614227891 
57    9.449999999999999    1.350000000000000    4.050000000000000   -0.104790970683098   -0.108368538320065    0.124669998884201 
58    9.449999999999999    1.350000000000000    9.449999999999999   -0.023164225742221    0.003475272096694    0.254402071237564 
59    9.449999999999999    4.050000000000000    1.350000000000000    0.016353741288185   -0.013847667723894   -0.007032477762550 
60    9.449999999999999    4.050000000000000    6.750000000000000    0.001987680559978    0.000190691396710    0.004911893513054 
61    9.449999999999999    6.750000000000000    4.050000000000000    0.001080646761693    0.002858598250896    0.024105757474899 
62    9.449999999999999    6.750000000000000    9.449999999999999   -0.000210106067243    0.004489155020565    0.284766525030136 
63    9.449999999999999    9.449999999999999    1.350000000000000    0.058308072388172    0.044477682560682   -0.129465073347092 
64    9.449999999999999    9.449999999999999    6.750000000000000    0.001635635970160    0.000466733297799    0.004954491741955 
