ITEM: TIMESTEP
0
ITEM: NUMBER OF ATOMS
64
ITEM: BOX BOUNDS xy xz yz pp pp pp
0.0000000000000000e+00 1.0800000000000001e+01 0.0000000000000000e+00
0.0000000000000000e+00 1.0800000000000001e+01 0.0000000000000000e+00
0.0000000000000000e+00 1.0800000000000001e+01 0.0000000000000000e+00
ITEM: ATOMS id xu yu zu fx fy fz 
1   -0.039999999999999    0.000000000000000    0.000000000000000    0.267249077558517    0.367426693439484   -0.194448471069336 
2    0.000000000000000    0.000000000000000    5.400000000000000   -0.000135157446493   -0.000468639773317   -0.013161306269467 
3    0.000000000000000    2.700000000000000    2.700000000000000    0.086441121995449   -0.088197290897369   -0.083435401320457 
4    0.000000000000000    2.700000000000000    8.100000000000000   -0.003585468977690   -0.000600565748755    0.020200192928314 
5    0.000000000000000    5.400000000000000    0.000000000000000   -0.006314393598586   -0.009357796050608   -0.265867829322815 
6    0.000000000000000    5.400000000000000    5.400000000000000   -0.005282834172249   -0.000088810993475   -0.013504970818758 
7    0.000000000000000    8.100000000000000    2.700000000000000    0.005735737271607   -0.000667518412229    0.001270029693842 
8    0.000000000000000    8.100000000000000    8.100000000000000   -0.004816358909011    0.002804397139698    0.018011890351772 
9    1.390000000000000    1.350000000000000    1.350000000000000   -0.451786965131760   -0.087972134351730   -0.196386203169823 
10    1.350000000000000    1.350000000000000    6.750000000000000    0.000313418597216    0.000738769595046   -0.001230709021911 
11    1.350000000000000    4.050000000000000    4.050000000000000    0.001800862839445   -0.001337736612186    0.010232609696686 
12    1.350000000000000    4.050000000000000    9.449999999999999   -0.007337417919189    0.017172563821077    0.252397805452347 
13    1.350000000000000    6.750000000000000    1.350000000000000   -0.000331118353643   -0.000172204512637   -0.019903456792235 
14    1.350000000000000    6.750000000000000    6.750000000000000    0.000511401623953    0.000410620385082    0.005351081024855 
15    1.350000000000000    9.449999999999999    4.050000000000000   -0.003721444169059   -0.002396721858531    0.017840126529336 
16    1.350000000000000    9.449999999999999    9.449999999999999   -0.008147747255862   -0.000070695510658    0.258663117885590 
17    2.700000000000000    0.000000000000000    2.700000000000000    0.094734862446785   -0.092789836227894    0.084322810173035 
18    2.700000000000000    0.000000000000000    8.100000000000000   -0.001309992629103    0.002464924473315    0.021220896393061 
19    2.700000000000000    2.700000000000000    0.000000000000000    0.067636735737324    0.111732050776482   -0.366446822881699 
20    2.700000000000000    2.700000000000000    5.400000000000000   -0.002706260420382    0.000623572617769   -0.013811570592225 
21    2.700000000000000    5.400000000000000    2.700000000000000   -0.000532035017386   -0.000684180529788   -0.002004274167120 
22    2.700000000000000    5.400000000000000    8.100000000000000    0.000606319576036   -0.004657923243940    0.025708895176649 
23    2.700000000000000    8.100000000000000    0.000000000000000   -0.004918357823044   -0.009825416840613   -0.257590562105179 
24    2.700000000000000    8.100000000000000    5.400000000000000    0.000595766876359    0.002526908880100   -0.014164728112519 
25    4.050000000000000    1.350000000000000    4.050000000000000    0.002678766613826    0.001068573328666    0.017748629674315 
26    4.050000000000000    1.350000000000000    9.449999999999999   -0.003447305178270    0.002487727440894    0.255258381366730 
27    4.050000000000000    4.050000000000000    1.350000000000000    0.003419405082241    0.000878037244547   -0.016042685136199 
28    4.050000000000000    4.050000000000000    6.750000000000000   -0.000753726926632    0.000020689818484    0.001581730786711 
29    4.050000000000000    6.750000000000000    4.050000000000000   -0.000310827221256    0.001137255458161    0.010372435674071 
30    4.050000000000000    6.750000000000000    9.449999999999999    0.013296009041369   -0.000898344500456    0.259915083646774 
31    4.050000000000000    9.449999999999999    1.350000000000000   -0.001870190375485   -0.001760375918821   -0.021084664389491 
32    4.050000000000000    9.449999999999999    6.750000000000000    0.001626255689189    0.000892211101018   -0.001584803336300 
33    5.400000000000000    0.000000000000000    0.000000000000000   -0.001331345294602    0.007989804260433   -0.264890998601913 
34    5.400000000000000    0.000000000000000    5.400000000000000    0.001880425726995    0.004866556730121   -0.010108593851328 
35    5.400000000000000    2.700000000000000    2.700000000000000   -0.000543518341146   -0.001093544880860   -0.011509117670357 
36    5.400000000000000    2.700000000000000    8.100000000000000    0.003066316945478    0.004118447657675    0.018813744187355 
37    5.400000000000000    5.400000000000000    0.000000000000000    0.001769284019247   -0.001719831256196   -0.266308009624481 
38    5.400000000000000    5.400000000000000    5.400000000000000   -0.000491248851176   -0.000122335899505   -0.014111912809312 
39    5.400000000000000    8.100000000000000    2.700000000000000    0.002357986988500   -0.000564276939258   -0.003911675419658 
40    5.400000000000000    8.100000000000000    8.100000000000000    0.000076182506746   -0.002633224241436    0.009295541793108 
41    6.750000000000000    1.350000000000000    1.350000000000000    0.000156079870067    0.000121618591947   -0.023801909759641 
42    6.750000000000000    1.350000000000000    6.750000000000000   -0.000397172902012    0.000928041001316    0.010053128004074 
43    6.750000000000000    4.050000000000000    4.050000000000000   -0.004909301642329    0.002175555564463    0.010035932064056 
44    6.750000000000000    4.050000000000000    9.449999999999999    0.005300390534103    0.002356227720156    0.263984948396683 
45    6.750000000000000    6.750000000000000    1.350000000000000   -0.000522606947925    0.001661171088926   -0.008224090561271 
46    6.750000000000000    6.750000000000000    6.750000000000000    0.001470448449254    0.000095954113931    0.002045093337074 
47    6.750000000000000    9.449999999999999    4.050000000000000   -0.002348339185119   -0.000835661834572    0.013188818469644 
48    6.750000000000000    9.449999999999999    9.449999999999999   -0.008504203520715    0.004064925014973    0.261074781417847 
49    8.100000000000000    0.000000000000000    2.700000000000000   -0.002138213953003    0.002429033629596    0.000088001695985 
50    8.100000000000000    0.000000000000000    8.100000000000000    0.002876079175621    0.002407629741356    0.018501270562410 
51    8.100000000000000    2.700000000000000    0.000000000000000    0.004357018042356   -0.012069864198565   -0.267086297273636 
52    8.100000000000000    2.700000000000000    5.400000000000000    0.004962099250406   -0.003501651342958   -0.016940917819738 
53    8.100000000000000    5.400000000000000    2.700000000000000    0.000250075769145    0.002675460651517   -0.011486587114632 
54    8.100000000000000    5.400000000000000    8.100000000000000    0.002362568862736   -0.000601845735218    0.010016699321568 
55    8.100000000000000    8.100000000000000    0.000000000000000   -0.019520957022905   -0.007562717888504   -0.284484535455704 
56    8.100000000000000    8.100000000000000    5.400000000000000    0.002274915808812    0.002097520977259   -0.013946420513093 
57    9.449999999999999    1.350000000000000    4.050000000000000    0.000357757118763   -0.002027561888099    0.011133334599435 
58    9.449999999999999    1.350000000000000    9.449999999999999    0.002673100912943   -0.006781351286918    0.267569333314896 
59    9.449999999999999    4.050000000000000    1.350000000000000    0.001687969430350   -0.000309624272631   -0.006669639144093 
60    9.449999999999999    4.050000000000000    6.750000000000000   -0.001650501508266    0.001105224480852    0.005385173484683 
61    9.449999999999999    6.750000000000000    4.050000000000000    0.003104925155640   -0.000977122108452    0.013233247213066 
62    9.449999999999999    6.750000000000000    9.449999999999999    0.002061779377982   -0.018230160698295    0.260574281215668 
63    9.449999999999999    9.449999999999999    1.350000000000000   -0.009402550756931   -0.013941916637123    0.001171856303699 
64    9.449999999999999    9.449999999999999    6.750000000000000   -0.000176684057806   -0.000983751495369    0.003887714352459 
