ITEM: TIMESTEP
0
ITEM: NUMBER OF ATOMS
64
ITEM: BOX BOUNDS xy xz yz pp pp pp
0.0000000000000000e+00 1.0800000000000001e+01 0.0000000000000000e+00
0.0000000000000000e+00 1.0800000000000001e+01 0.0000000000000000e+00
0.0000000000000000e+00 1.0800000000000001e+01 0.0000000000000000e+00
ITEM: ATOMS id xu yu zu fx fy fz 
1   -0.039999999999999    0.000000000000000    0.000000000000000    0.193174317479134    0.265675812959671   -0.265145182609558 
2    0.000000000000000    0.000000000000000    5.400000000000000    0.003794668940827   -0.000391116336687   -0.015899499878287 
3   -0.039999999999999    2.700000000000000    2.700000000000000    0.457948654890060   -0.018680006265640   -0.024296879768372 
4    0.000000000000000    2.700000000000000    8.100000000000000    0.001897588837892    0.002465537982062    0.011269064620137 
5    0.000000000000000    5.400000000000000    0.000000000000000    0.011467474512756    0.010631698183715   -0.272150307893753 
6    0.000000000000000    5.400000000000000    5.400000000000000    0.004393935669214   -0.006320748012513   -0.018674310296774 
7    0.000000000000000    8.100000000000000    2.700000000000000    0.002112579997629   -0.001889833714813   -0.001708186697215 
8    0.000000000000000    8.100000000000000    8.100000000000000   -0.002255165483803   -0.001559138647281    0.007544127292931 
9    1.350000000000000    1.350000000000000    1.350000000000000   -0.098165005445480    0.018562382087111   -0.064853623509407 
10    1.350000000000000    1.350000000000000    6.750000000000000   -0.001610869541764   -0.001427300507203    0.004705605097115 
11    1.350000000000000    4.050000000000000    4.050000000000000   -0.118732228875160   -0.082396641373634   -0.066708996891975 
12    1.350000000000000    4.050000000000000    9.449999999999999    0.003300632117316   -0.002301852218807    0.279594898223877 
13    1.350000000000000    6.750000000000000    1.350000000000000   -0.000297748978483   -0.000406427308917   -0.006119162309915 
14    1.350000000000000    6.750000000000000    6.750000000000000    0.001267673796974   -0.002067911671475    0.002980305813253 
15    1.350000000000000    9.449999999999999    4.050000000000000   -0.004062815103680    0.002587517490610    0.014780812896788 
16    1.350000000000000    9.449999999999999    9.449999999999999    0.003130813827738    0.003574238857254    0.258087992668152 
17    2.700000000000000    0.000000000000000    2.700000000000000   -0.005378632340580    0.008032942190766   -0.003771940944716 
18    2.700000000000000    0.000000000000000    8.100000000000000   -0.003618212183937    0.001883659278974    0.032160148024559 
19    2.700000000000000    2.700000000000000    0.000000000000000   -0.011210449971259   -0.007619583047926   -0.252945601940155 
20    2.700000000000000    2.700000000000000    5.400000000000000   -0.001939197303727   -0.000133918219944   -0.015625759959221 
21    2.700000000000000    5.400000000000000    2.700000000000000   -0.002744232071564   -0.002659776248038   -0.001671190955676 
22    2.700000000000000    5.400000000000000    8.100000000000000    0.002809614641592   -0.000711000873707    0.007158447057009 
23    2.700000000000000    8.100000000000000    0.000000000000000    0.003769619856030   -0.008696204051375   -0.261246383190155 
24    2.700000000000000    8.100000000000000    5.400000000000000    0.000190879276488    0.000587387650739   -0.014903811737895 
25    4.050000000000000    1.350000000000000    4.050000000000000    0.002246271818876   -0.004085063468665    0.019967218860984 
26    4.050000000000000    1.350000000000000    9.449999999999999    0.005135047715157    0.003277159528807    0.271806567907333 
27    4.050000000000000    4.050000000000000    1.350000000000000    0.001333469408564   -0.007500761188567   -0.022700043395162 
28    4.050000000000000    4.050000000000000    6.750000000000000   -0.001055398606695    0.001256259041838    0.002770899794996 
29    4.050000000000000    6.750000000000000    4.050000000000000   -0.002861925167963   -0.000082614467829    0.012564094737172 
30    4.050000000000000    6.750000000000000    9.449999999999999    0.004331596661359    0.001283106394112    0.265606820583344 
31    4.050000000000000    9.449999999999999    1.350000000000000    0.003228929126635    0.002606533467770   -0.015690552070737 
32    4.050000000000000    9.449999999999999    6.750000000000000   -0.002585874404758   -0.000491312181111    0.003177755745128 
33    5.400000000000000    0.000000000000000    0.000000000000000   -0.008001870475709   -0.003320152638480   -0.263750135898590 
34    5.400000000000000    0.000000000000000    5.400000000000000   -0.001405587885529    0.003037044079974   -0.016375545412302 
35    5.400000000000000    2.700000000000000    2.700000000000000   -0.000050589427701    0.000683652877342   -0.004909967537969 
36    5.400000000000000    2.700000000000000    8.100000000000000    0.000903403735720   -0.005057339090854    0.011443275958300 
37    5.400000000000000    5.400000000000000    0.000000000000000    0.000729002116714   -0.003598242765293   -0.269346833229065 
38    5.400000000000000    5.400000000000000    5.400000000000000    0.000934635871090    0.000417216477217   -0.014965962618589 
39    5.400000000000000    8.100000000000000    2.700000000000000   -0.001337820198387    0.001991354161873   -0.003014490008354 
40    5.400000000000000    8.100000000000000    8.100000000000000    0.002127094427124   -0.002736947499216    0.023963335901499 
41    6.750000000000000    1.350000000000000    1.350000000000000    0.001886708429083    0.002796506043524   -0.013144450262189 
42    6.750000000000000    1.350000000000000    6.750000000000000   -0.002008697716519    0.000959463824984    0.007183477282524 
43    6.750000000000000    4.050000000000000    4.050000000000000    0.004134634509683    0.000250768818660    0.016393652185798 
44    6.750000000000000    4.050000000000000    9.449999999999999   -0.014084880240262   -0.001213216455653    0.260666847229004 
45    6.750000000000000    6.750000000000000    1.350000000000000    0.003362698480487    0.000525676936377   -0.016387246549129 
46    6.750000000000000    6.750000000000000    6.750000000000000    0.001280531869270   -0.002423699479550    0.006915289442986 
47    6.750000000000000    9.449999999999999    4.050000000000000   -0.001996269682422   -0.002862095367163    0.012744107283652 
48    6.750000000000000    9.449999999999999    9.449999999999999   -0.006143352016807   -0.005477129016072    0.261549890041351 
49    8.100000000000000    0.000000000000000    2.700000000000000   -0.003914560191333    0.001558469841257    0.000939302844927 
50    8.100000000000000    0.000000000000000    8.100000000000000    0.002966911764815   -0.000457771326182    0.015519466251135 
51    8.100000000000000    2.700000000000000    0.000000000000000   -0.004042177926749   -0.024075694382191   -0.279256135225296 
52    8.100000000000000    2.700000000000000    5.400000000000000   -0.004930974449962   -0.000521187845152   -0.015326916240156 
53    8.100000000000000    5.400000000000000    2.700000000000000   -0.003685015253723    0.003106004791334   -0.012801780365407 
54    8.100000000000000    5.400000000000000    8.100000000000000   -0.001357066095807    0.000805724703241    0.022472897544503 
55    8.100000000000000    8.100000000000000    0.000000000000000   -0.011934030801058   -0.011063082143664   -0.252446413040161 
56    8.100000000000000    8.100000000000000    5.400000000000000    0.001546232262626    0.002144588856027   -0.018486991524696 
57    9.449999999999999    1.350000000000000    4.050000000000000   -0.110968060791492   -0.105231352150440    0.119301632046700 
58    9.449999999999999    1.350000000000000    9.449999999999999   -0.009023589082062   -0.003834995441139    0.257056176662445 
59    9.449999999999999    4.050000000000000    1.350000000000000   -0.050359744578600    0.068018704652786   -0.128732636570930 
60    9.449999999999999    4.050000000000000    6.750000000000000    0.001698693027720    0.000545819988474    0.002684583654627 
61    9.449999999999999    6.750000000000000    4.050000000000000   -0.000384448241675    0.002426303457469    0.019120737910271 
62    9.449999999999999    6.750000000000000    9.449999999999999    0.007682504132390    0.000018403408831    0.254895538091660 
63    9.449999999999999    9.449999999999999    1.350000000000000   -0.024103434756398   -0.026632977649570    0.007913782261312 
64    9.449999999999999    9.449999999999999    6.750000000000000    0.001471772906370    0.002986506558955    0.007459124550223 
