ITEM: TIMESTEP
0
ITEM: NUMBER OF ATOMS
64
ITEM: BOX BOUNDS xy xz yz pp pp pp
0.0000000000000000e+00 1.0800000000000001e+01 0.0000000000000000e+00
0.0000000000000000e+00 1.0800000000000001e+01 0.0000000000000000e+00
0.0000000000000000e+00 1.0800000000000001e+01 0.0000000000000000e+00
ITEM: ATOMS id xu yu zu fx fy fz 
1   -0.039999999999999    0.000000000000000    0.000000000000000    0.177480086684227    0.241829752922058   -0.295079648494720 
2    0.000000000000000    0.000000000000000    5.400000000000000   -0.003289810381830   -0.002211757702753   -0.014440656639636 
3    0.000000000000000    2.660000000000000    2.700000000000000   -0.007150901015848    0.456564366817474   -0.026748759672046 
4    0.000000000000000    2.700000000000000    8.100000000000000   -0.001631840015762   -0.001360605354421    0.005172580014914 
5    0.000000000000000    5.400000000000000    0.000000000000000   -0.000882312189788   -0.018724016845226   -0.262246102094650 
6    0.000000000000000    5.400000000000000    5.400000000000000   -0.004653342068195   -0.002413141075522   -0.018710158765316 
7    0.000000000000000    8.100000000000000    2.700000000000000   -0.002433716552332   -0.003909468650818   -0.001596602378413 
8    0.000000000000000    8.100000000000000    8.100000000000000   -0.001175704994239   -0.000447444559541    0.010846811346710 
9    1.350000000000000    1.350000000000000    1.350000000000000    0.041594505310059   -0.137685328722000   -0.258349031209946 
10    1.350000000000000    1.350000000000000    6.750000000000000    0.001746076624840   -0.000850866083056    0.008089441806078 
11    1.350000000000000    4.050000000000000    4.050000000000000   -0.090448282659054   -0.097648277878761   -0.065730653703213 
12    1.350000000000000    4.050000000000000    9.449999999999999    0.000170633065864   -0.008012993261218    0.270335823297501 
13    1.350000000000000    6.750000000000000    1.350000000000000    0.001475615194067    0.003328180406243   -0.013946843333542 
14    1.350000000000000    6.750000000000000    6.750000000000000   -0.000678661104757   -0.000854320067447   -0.002594955498353 
15    1.350000000000000    9.449999999999999    4.050000000000000   -0.000751911953557   -0.000990644679405    0.013700148090720 
16    1.350000000000000    9.449999999999999    9.449999999999999    0.007942174561322   -0.001857680734247    0.252350449562073 
17    2.700000000000000    0.000000000000000    2.700000000000000   -0.001434485544451    0.001937376684509   -0.003468202194199 
18    2.700000000000000    0.000000000000000    8.100000000000000    0.000746862904634   -0.002466325182468    0.018912160769105 
19    2.700000000000000    2.700000000000000    0.000000000000000   -0.012191005051136   -0.008676964789629   -0.267423868179321 
20    2.700000000000000    2.700000000000000    5.400000000000000    0.002146240556613    0.002158959629014   -0.012730561196804 
21    2.700000000000000    5.400000000000000    2.700000000000000   -0.003302813507617   -0.002690000692382   -0.009294738993049 
22    2.700000000000000    5.400000000000000    8.100000000000000   -0.002485388889909   -0.005068529862911    0.016408605501056 
23    2.700000000000000    8.100000000000000    0.000000000000000   -0.003528603352606   -0.017685117200017   -0.266060858964920 
24    2.700000000000000    8.100000000000000    5.400000000000000   -0.002531916601583   -0.001887553487904   -0.012714172713459 
25    4.050000000000000    1.350000000000000    4.050000000000000    0.000331044138875   -0.001585937920026    0.015331102535129 
26    4.050000000000000    1.350000000000000    9.449999999999999    0.003547787899151   -0.001529247732833    0.259247601032257 
27    4.050000000000000    4.050000000000000    1.350000000000000   -0.000019734274247    0.000619802332949   -0.008756900206208 
28    4.050000000000000    4.050000000000000    6.750000000000000   -0.000610254763160   -0.003438735147938    0.001777410390787 
29    4.050000000000000    6.750000000000000    4.050000000000000   -0.000774048676249   -0.000244543683948    0.012376781553030 
30    4.050000000000000    6.750000000000000    9.449999999999999   -0.003488681744784   -0.006900848355144    0.272631019353867 
31    4.050000000000000    9.449999999999999    1.350000000000000    0.001152179436758   -0.000559026258998   -0.010779296979308 
32    4.050000000000000    9.449999999999999    6.750000000000000   -0.001053491956554   -0.000365089275874    0.004643783438951 
33    5.400000000000000    0.000000000000000    0.000000000000000   -0.001560809323564   -0.001683170674369   -0.259307891130447 
34    5.400000000000000    0.000000000000000    5.400000000000000   -0.000166721889400    0.002022215165198   -0.011173381470144 
35    5.400000000000000    2.700000000000000    2.700000000000000    0.000869100040291   -0.003631298895925   -0.001396041596308 
36    5.400000000000000    2.700000000000000    8.100000000000000    0.000354919407982    0.000163799268194    0.006666907109320 
37    5.400000000000000    5.400000000000000    0.000000000000000   -0.005671931896359   -0.002111516427249   -0.258663117885590 
38    5.400000000000000    5.400000000000000    5.400000000000000    0.002540718298405    0.001348270801827   -0.011608498170972 
39    5.400000000000000    8.100000000000000    2.700000000000000   -0.000640418147668    0.001370136393234   -0.000663921178784 
40    5.400000000000000    8.100000000000000    8.100000000000000   -0.000092296199000    0.000156971393153    0.015809288248420 
41    6.750000000000000    1.350000000000000    1.350000000000000   -0.001560872653499   -0.002046594629064   -0.006651795003563 
42    6.750000000000000    1.350000000000000    6.750000000000000    0.001552696339786   -0.003517362056300    0.004362744744867 
43    6.750000000000000    4.050000000000000    4.050000000000000   -0.004220871254802    0.004362888168544    0.012302659451962 
44    6.750000000000000    4.050000000000000    9.449999999999999    0.007991213351488    0.003832639195025    0.240834206342697 
45    6.750000000000000    6.750000000000000    1.350000000000000   -0.002113719470799   -0.000594572164118   -0.021547595039010 
46    6.750000000000000    6.750000000000000    6.750000000000000   -0.000436713075032   -0.000309243216179    0.005102343857288 
47    6.750000000000000    9.449999999999999    4.050000000000000   -0.001566853141412   -0.001590793835931    0.011763718910515 
48    6.750000000000000    9.449999999999999    9.449999999999999   -0.011133458465338   -0.010726398788393    0.251924157142639 
49    8.100000000000000    0.000000000000000    2.700000000000000   -0.000382973201340    0.002675260417163   -0.003054024651647 
50    8.100000000000000    0.000000000000000    8.100000000000000    0.002726414008066   -0.000152853463078    0.015751577913761 
51    8.100000000000000    2.700000000000000    0.000000000000000    0.014454918913543   -0.008580549620092   -0.263209849596024 
52    8.100000000000000    2.700000000000000    5.400000000000000    0.004561517853290   -0.002461006864905   -0.019193900749087 
53    8.100000000000000    5.400000000000000    2.700000000000000    0.005843113176525   -0.000244365568506   -0.002052445663139 
54    8.100000000000000    5.400000000000000    8.100000000000000   -0.000740031420719   -0.001492023933679    0.006141319870949 
55    8.100000000000000    8.100000000000000    0.000000000000000   -0.013111144304276   -0.004842815920711   -0.266946345567703 
56    8.100000000000000    8.100000000000000    5.400000000000000    0.002293631900102    0.000349528098013   -0.018417166545987 
57    9.449999999999999    1.350000000000000    4.050000000000000   -0.100590415298939   -0.108743958175182    0.135034382343292 
58    9.449999999999999    1.350000000000000    9.449999999999999   -0.002756222849712    0.001638705842197    0.257531315088272 
59    9.449999999999999    4.050000000000000    1.350000000000000    0.013237633742392   -0.007625691127032   -0.004967159125954 
60    9.449999999999999    4.050000000000000    6.750000000000000    0.001567425206304    0.000612564559560    0.005830036476254 
61    9.449999999999999    6.750000000000000    4.050000000000000   -0.000033549167711   -0.001240495243110    0.017660496756434 
62    9.449999999999999    6.750000000000000    9.449999999999999    0.004511322826147   -0.000646623026114    0.271769315004349 
63    9.449999999999999    9.449999999999999    1.350000000000000   -0.017424413934350   -0.015610042959452    0.000251750665484 
64    9.449999999999999    9.449999999999999    6.750000000000000    0.000348180270521   -0.001853811088949    0.007505547255278 
