# Structure data of Dy (2x2x2 conventional) 

16 atoms
1 atom types

0.0 7.2534074783 xlo xhi
0.0 6.2816351402 ylo yhi
0.0 11.2327442169 zlo zhi
-3.6267037392 0.0 0.0 xy xz yz

Masses

1 162.5  # Dy

Atoms  # atomic

1 1 1.8133519203 1.0469392235 4.2122790813
2 1 1.8133519203 1.0469392235 9.8286511898
3 1 -3.6600371622e-09 4.1877568879 4.2122790813
4 1 -3.6600371622e-09 4.1877568879 9.8286511898
5 1 5.4400558771 1.0469392235 4.2122790813
6 1 5.4400558771 1.0469392235 9.8286511898
7 1 3.6267039531 4.1877568879 4.2122790813
8 1 3.6267039531 4.1877568879 9.8286511898
9 1 3.6100369361e-09 2.0938784408 1.4040930271
10 1 3.6100369361e-09 2.0938784408 7.0204651356
11 1 -1.8133519748 5.2346961993 1.4040930271
12 1 -1.8133519748 5.2346961993 7.0204651356
13 1 3.6267038516 2.0938784408 1.4040930271
14 1 3.6267038516 2.0938784408 7.0204651356
15 1 1.8133518732 5.2346961993 1.4040930271
16 1 1.8133518732 5.2346961993 7.0204651356
