# LAMMPS data file

64 atoms
1 atom types

0.0 7.1474199295 xlo xhi
0.0 7.1474199295 ylo yhi
0.0 7.1474199295 zlo zhi
0.000000    0.000000    0.000000   xy xz yz

Masses

1 12.0107  # C

Atoms  # atomic

1 1 0.893427491 2.680282474 0.893427491
2 1 0.893427491 2.680282474 4.467137456
3 1 0.893427491 6.253992438 0.893427491
4 1 0.893427491 6.253992438 4.467137456
5 1 4.467137456 2.680282474 0.893427491
6 1 4.467137456 2.680282474 4.467137456
7 1 4.467137456 6.253992438 0.893427491
8 1 4.467137456 6.253992438 4.467137456
9 1 0.0 0.0 1.786854982
10 1 0.0 0.0 5.360564947
11 1 0.0 3.573709965 1.786854982
12 1 0.0 3.573709965 5.360564947
13 1 3.573709965 0.0 1.786854982
14 1 3.573709965 0.0 5.360564947
15 1 3.573709965 3.573709965 1.786854982
16 1 3.573709965 3.573709965 5.360564947
17 1 0.893427491 0.893427491 2.680282474
18 1 0.893427491 0.893427491 6.253992438
19 1 0.893427491 4.467137456 2.680282474
20 1 0.893427491 4.467137456 6.253992438
21 1 4.467137456 0.893427491 2.680282474
22 1 4.467137456 0.893427491 6.253992438
23 1 4.467137456 4.467137456 2.680282474
24 1 4.467137456 4.467137456 6.253992438
25 1 0.0 1.786854982 0.0
26 1 0.0 1.786854982 3.573709965
27 1 0.0 5.360564947 0.0
28 1 0.0 5.360564947 3.573709965
29 1 3.573709965 1.786854982 0.0
30 1 3.573709965 1.786854982 3.573709965
31 1 3.573709965 5.360564947 0.0
32 1 3.573709965 5.360564947 3.573709965
33 1 2.680282474 2.680282474 2.680282474
34 1 2.680282474 2.680282474 6.253992438
35 1 2.680282474 6.253992438 2.680282474
36 1 2.680282474 6.253992438 6.253992438
37 1 6.253992438 2.680282474 2.680282474
38 1 6.253992438 2.680282474 6.253992438
39 1 6.253992438 6.253992438 2.680282474
40 1 6.253992438 6.253992438 6.253992438
41 1 1.786854982 0.0 0.0
42 1 1.786854982 0.0 3.573709965
43 1 1.786854982 3.573709965 0.0
44 1 1.786854982 3.573709965 3.573709965
45 1 5.360564947 0.0 0.0
46 1 5.360564947 0.0 3.573709965
47 1 5.360564947 3.573709965 0.0
48 1 5.360564947 3.573709965 3.573709965
49 1 2.680282474 0.893427491 0.893427491
50 1 2.680282474 0.893427491 4.467137456
51 1 2.680282474 4.467137456 0.893427491
52 1 2.680282474 4.467137456 4.467137456
53 1 6.253992438 0.893427491 0.893427491
54 1 6.253992438 0.893427491 4.467137456
55 1 6.253992438 4.467137456 0.893427491
56 1 6.253992438 4.467137456 4.467137456
57 1 1.786854982 1.786854982 1.786854982
58 1 1.786854982 1.786854982 5.360564947
59 1 1.786854982 5.360564947 1.786854982
60 1 1.786854982 5.360564947 5.360564947
61 1 5.360564947 1.786854982 1.786854982
62 1 5.360564947 1.786854982 5.360564947
63 1 5.360564947 5.360564947 1.786854982
64 1 5.360564947 5.360564947 5.360564947
