ITEM: TIMESTEP
0
ITEM: NUMBER OF ATOMS
64
ITEM: BOX BOUNDS xy xz yz pp pp pp
0.0000000000000000e+00 1.0800000000000001e+01 0.0000000000000000e+00
0.0000000000000000e+00 1.0800000000000001e+01 0.0000000000000000e+00
0.0000000000000000e+00 1.0800000000000001e+01 0.0000000000000000e+00
ITEM: ATOMS id xu yu zu fx fy fz
     1    0.010044000000000    0.000000000000000    0.000000000000000   -0.215760946742336    0.000000000000000    0.000000000000000
     2    0.000000000000000    0.000000000000000    5.400000000000000    0.000620628262369    0.000000000000000    0.000000000000000
     3    0.000000000000000    2.700000000000000    2.700000000000000   -0.007454928969186   -0.001297496950093   -0.001297496950093
     4    0.000000000000000    2.700000000000000    8.100000000000001   -0.007440538265603    0.001267743198090   -0.001267704304296
     5    0.000000000000000    5.400000000000000    0.000000000000000    0.000620628262369   -0.000000000000000   -0.000000000000000
     6    0.000000000000000    5.400000000000000    5.400000000000000   -0.006001545694873    0.000000000000000    0.000000000000000
     7    0.000000000000000    8.100000000000001    2.700000000000000   -0.007440538265603   -0.001267743198090    0.001267704304296
     8    0.000000000000000    8.100000000000001    8.100000000000001   -0.007454928969186    0.001297496950093    0.001297496950093
     9    1.350000000000000    1.350000000000000    1.350000000000000    0.053605098590719    0.036585252356708    0.036585213462915
    10    1.350000000000000    1.350000000000000    6.750000000000000   -0.000587257387573    0.000186456845886    0.000472248440288
    11    1.350000000000000    4.050000000000001    4.050000000000001    0.002997933600514   -0.000579050797152   -0.000579089690945
    12    1.350000000000000    4.050000000000001    9.450000000000001   -0.000587257387573   -0.000472209546495   -0.000186417952092
    13    1.350000000000000    6.750000000000000    1.350000000000000   -0.000587257387573    0.000472248440288    0.000186417952092
    14    1.350000000000000    6.750000000000000    6.750000000000000    0.002997933600514    0.000579089690945    0.000579089690945
    15    1.350000000000000    9.450000000000001    4.050000000000001   -0.000587257387573   -0.000186456845886   -0.000472248440288
    16    1.350000000000000    9.450000000000001    9.450000000000001    0.053605098590719   -0.036585252356708   -0.036585213462915
    17    2.700000000000000    0.000000000000000    2.700000000000000    0.003065919951496    0.001302903187385    0.003192947080962
    18    2.700000000000000    0.000000000000000    8.100000000000001    0.003065919951496   -0.001302903187385   -0.003192947080962
    19    2.700000000000000    2.700000000000000    0.000000000000000    0.003065881057702    0.003192947080962    0.001302903187385
    20    2.700000000000000    2.700000000000000    5.400000000000000    0.000613821848512   -0.000753100522921    0.000110263904482
    21    2.700000000000000    5.400000000000000    2.700000000000000    0.000613821848512    0.000110263904482   -0.000753139416714
    22    2.700000000000000    5.400000000000000    8.100000000000001    0.000613821848512   -0.000110263904482    0.000753139416714
    23    2.700000000000000    8.100000000000001    0.000000000000000    0.003065881057702   -0.003192947080962   -0.001302903187385
    24    2.700000000000000    8.100000000000001    5.400000000000000    0.000613821848512    0.000753100522921   -0.000110263904482
    25    4.050000000000001    1.350000000000000    4.050000000000001    0.000313406187765   -0.000589085395866    0.000429854205408
    26    4.050000000000001    1.350000000000000    9.450000000000001   -0.000480493924504   -0.000466881096790    0.000466919990583
    27    4.050000000000001    4.050000000000001    1.350000000000000    0.000313406187765    0.000429854205408   -0.000589085395866
    28    4.050000000000001    4.050000000000001    6.750000000000000   -0.000711250801149    0.000474659855483   -0.000474620961690
    29    4.050000000000001    6.750000000000000    4.050000000000001   -0.000711250801149   -0.000474659855483    0.000474659855483
    30    4.050000000000001    6.750000000000000    9.450000000000001    0.000313406187765   -0.000429854205408    0.000589124289660
    31    4.050000000000001    9.450000000000001    1.350000000000000   -0.000480493924504    0.000466881096790   -0.000466881096790
    32    4.050000000000001    9.450000000000001    6.750000000000000    0.000313406187765    0.000589085395866   -0.000429815311615
    33    5.400000000000000    0.000000000000000    0.000000000000000    0.000607909991905    0.000000000000000   -0.000000000000000
    34    5.400000000000000    0.000000000000000    5.400000000000000    0.000031115034774    0.000000000000000    0.000000000000000
    35    5.400000000000000    2.700000000000000    2.700000000000000    0.000443544820709   -0.000106724569276   -0.000106763463070
    36    5.400000000000000    2.700000000000000    8.100000000000001    0.000449106633175    0.000105052136157   -0.000105052136157
    37    5.400000000000000    5.400000000000000    0.000000000000000    0.000031115034774   -0.000000000000000   -0.000000000000000
    38    5.400000000000000    5.400000000000000    5.400000000000000    0.000054256841888    0.000000000000000   -0.000000000000000
    39    5.400000000000000    8.100000000000001    2.700000000000000    0.000449106633175   -0.000105052136157    0.000105052136157
    40    5.400000000000000    8.100000000000001    8.100000000000001    0.000443544820709    0.000106724569276    0.000106763463070
    41    6.750000000000000    1.350000000000000    1.350000000000000   -0.000486016843176    0.000468942467844    0.000468942467844
    42    6.750000000000000    1.350000000000000    6.750000000000000    0.000310722516016    0.000582240088216    0.000422153234302
    43    6.750000000000000    4.050000000000001    4.050000000000001   -0.000710628500454   -0.000476254501016   -0.000476254501016
    44    6.750000000000000    4.050000000000001    9.450000000000001    0.000310722516016   -0.000422114340508   -0.000582201194423
    45    6.750000000000000    6.750000000000000    1.350000000000000    0.000310722516016    0.000422153234302    0.000582240088216
    46    6.750000000000000    6.750000000000000    6.750000000000000   -0.000710628500454    0.000476254501016    0.000476293394809
    47    6.750000000000000    9.450000000000001    4.050000000000001    0.000310722516016   -0.000582240088216   -0.000422153234302
    48    6.750000000000000    9.450000000000001    9.450000000000001   -0.000486016843176   -0.000468942467844   -0.000468942467844
    49    8.100000000000001    0.000000000000000    2.700000000000000    0.003042233631274    0.001286334431367   -0.003170466468338
    50    8.100000000000001    0.000000000000000    8.100000000000001    0.003042233631274   -0.001286334431367    0.003170466468338
    51    8.100000000000001    2.700000000000000    0.000000000000000    0.003042233631274   -0.003170427574544    0.001286334431367
    52    8.100000000000001    2.700000000000000    5.400000000000000    0.000612655034708    0.000754500699486    0.000111158461732
    53    8.100000000000001    5.400000000000000    2.700000000000000    0.000612655034708    0.000111158461732    0.000754461805692
    54    8.100000000000001    5.400000000000000    8.100000000000001    0.000612655034708   -0.000111158461732   -0.000754461805692
    55    8.100000000000001    8.100000000000001    0.000000000000000    0.003042233631274    0.003170427574544   -0.001286334431367
    56    8.100000000000001    8.100000000000001    5.400000000000000    0.000612655034708   -0.000754500699486   -0.000111158461732
    57    9.450000000000001    1.350000000000000    4.050000000000001   -0.000580762124064   -0.000196491444600    0.000464314106421
    58    9.450000000000001    1.350000000000000    9.450000000000001    0.053132188955941   -0.035602095045424    0.035602133939218
    59    9.450000000000001    4.050000000000001    1.350000000000000   -0.000580762124064    0.000464353000214   -0.000196491444600
    60    9.450000000000001    4.050000000000001    6.750000000000000    0.002973002678901    0.000577689514380   -0.000577650620587
    61    9.450000000000001    6.750000000000000    4.050000000000001    0.002973002678901   -0.000577650620587    0.000577650620587
    62    9.450000000000001    6.750000000000000    9.450000000000001   -0.000580762124064   -0.000464314106421    0.000196530338394
    63    9.450000000000001    9.450000000000001    1.350000000000000    0.053132188955941    0.035602095045424   -0.035602133939218
    64    9.450000000000001    9.450000000000001    6.750000000000000   -0.000580762124064    0.000196491444600   -0.000464314106421
