Disp. Num. 1 ( 0.010000 Angstrom, 1 : +x)

32 atoms
1 atom types

0.000000    8.079999   xlo xhi
0.000000    8.079999   ylo yhi
0.000000    8.079999   zlo zhi
0.000000    0.000000    0.000000   xy xz yz

Masses

 1 26.9815 1 Al 2.22 13.0

Atoms

    1   1   0.010000000000000   0.000000000000000   0.000000000000000
    2   1   0.000000000000000   0.000000000000000   4.039999962000000
    3   1   0.000000000000000   4.039999962000000   0.000000000000000
    4   1   0.000000000000000   4.039999962000000   4.039999962000000
    5   1   4.039999962000000   0.000000000000000   0.000000000000000
    6   1   4.039999962000000   0.000000000000000   4.039999962000000
    7   1   4.039999962000000   4.039999962000000   0.000000000000000
    8   1   4.039999962000000   4.039999962000000   4.039999962000000
    9   1   0.000000000000000   2.019999981000000   2.019999981000000
   10   1   0.000000000000000   2.019999981000000   6.059999943000000
   11   1   0.000000000000000   6.059999943000000   2.019999981000000
   12   1   0.000000000000000   6.059999943000000   6.059999943000000
   13   1   4.039999962000000   2.019999981000000   2.019999981000000
   14   1   4.039999962000000   2.019999981000000   6.059999943000000
   15   1   4.039999962000000   6.059999943000000   2.019999981000000
   16   1   4.039999962000000   6.059999943000000   6.059999943000000
   17   1   2.019999981000000   0.000000000000000   2.019999981000000
   18   1   2.019999981000000   0.000000000000000   6.059999943000000
   19   1   2.019999981000000   4.039999962000000   2.019999981000000
   20   1   2.019999981000000   4.039999962000000   6.059999943000000
   21   1   6.059999943000000   0.000000000000000   2.019999981000000
   22   1   6.059999943000000   0.000000000000000   6.059999943000000
   23   1   6.059999943000000   4.039999962000000   2.019999981000000
   24   1   6.059999943000000   4.039999962000000   6.059999943000000
   25   1   2.019999981000000   2.019999981000000   0.000000000000000
   26   1   2.019999981000000   2.019999981000000   4.039999962000000
   27   1   2.019999981000000   6.059999943000000   0.000000000000000
   28   1   2.019999981000000   6.059999943000000   4.039999962000000
   29   1   6.059999943000000   2.019999981000000   0.000000000000000
   30   1   6.059999943000000   2.019999981000000   4.039999962000000
   31   1   6.059999943000000   6.059999943000000   0.000000000000000
   32   1   6.059999943000000   6.059999943000000   4.039999962000000

