# Structure data of Fe31Cu1S64, Space Group No.1 (1x1x1 conventional) 

96 atoms
3 atom types

0.0 10.7936477661 xlo xhi
0.0 10.7936477661 ylo yhi
0.0 10.7936477661 zlo zhi
0.000000    0.000000    0.000000   xy xz yz

Masses

1 55.845  # Fe
2 32.065  # S
3 63.546  # Cu

Atoms  # atomic

1 1 0.0 2.6984119415 2.6984119415
2 1 0.0 8.0952358246 8.0952358246
3 1 0.0 2.6984119415 8.0952358246
4 1 0.0 8.0952358246 2.6984119415
5 1 5.396823883 2.6984119415 2.6984119415
6 1 5.396823883 8.0952358246 8.0952358246
7 1 5.396823883 2.6984119415 8.0952358246
8 1 5.396823883 8.0952358246 2.6984119415
9 1 2.6984119415 2.6984119415 0.0
10 1 8.0952358246 8.0952358246 0.0
11 1 2.6984119415 2.6984119415 5.396823883
12 1 8.0952358246 8.0952358246 5.396823883
13 1 2.6984119415 8.0952358246 0.0
14 1 8.0952358246 2.6984119415 0.0
15 1 2.6984119415 8.0952358246 5.396823883
16 1 8.0952358246 2.6984119415 5.396823883
17 1 2.6984119415 0.0 2.6984119415
18 1 8.0952358246 0.0 8.0952358246
19 1 2.6984119415 0.0 8.0952358246
20 1 8.0952358246 0.0 2.6984119415
21 1 2.6984119415 5.396823883 2.6984119415
22 1 8.0952358246 5.396823883 8.0952358246
23 1 2.6984119415 5.396823883 8.0952358246
24 1 8.0952358246 5.396823883 2.6984119415
25 1 0.0 0.0 5.396823883
26 1 0.0 5.396823883 0.0
27 1 0.0 5.396823883 5.396823883
28 1 5.396823883 0.0 0.0
29 1 5.396823883 0.0 5.396823883
30 1 5.396823883 5.396823883 0.0
31 1 5.396823883 5.396823883 5.396823883
32 2 2.079827988 0.6185839535 4.7782400915
33 2 8.7138196161 10.1750639745 6.0154076746
34 2 2.079827988 0.6185839535 10.1750639745
35 2 8.7138196161 10.1750639745 0.6185837916
36 2 2.079827988 6.0154076746 4.7782400915
37 2 8.7138196161 4.7782400915 6.0154076746
38 2 2.079827988 6.0154076746 10.1750639745
39 2 8.7138196161 4.7782400915 0.6185837916
40 2 7.476652033 0.6185839535 4.7782400915
41 2 3.3169957331 10.1750639745 6.0154076746
42 2 7.476652033 0.6185839535 10.1750639745
43 2 3.3169957331 10.1750639745 0.6185837916
44 2 7.476652033 6.0154076746 4.7782400915
45 2 3.3169957331 4.7782400915 6.0154076746
46 2 7.476652033 6.0154076746 10.1750639745
47 2 3.3169957331 4.7782400915 0.6185837916
48 2 0.6185839535 4.7782400915 2.079827988
49 2 10.1750639745 6.0154076746 8.7138196161
50 2 0.6185839535 4.7782400915 7.476652033
51 2 10.1750639745 6.0154076746 3.3169957331
52 2 0.6185839535 10.1750639745 2.079827988
53 2 10.1750639745 0.6185837916 8.7138196161
54 2 0.6185839535 10.1750639745 7.476652033
55 2 10.1750639745 0.6185837916 3.3169957331
56 2 6.0154076746 4.7782400915 2.079827988
57 2 4.7782400915 6.0154076746 8.7138196161
58 2 6.0154076746 4.7782400915 7.476652033
59 2 4.7782400915 6.0154076746 3.3169957331
60 2 6.0154076746 10.1750639745 2.079827988
61 2 4.7782400915 0.6185837916 8.7138196161
62 2 6.0154076746 10.1750639745 7.476652033
63 2 4.7782400915 0.6185837916 3.3169957331
64 2 4.7782400915 2.079827988 0.6185839535
65 2 6.0154076746 8.7138196161 10.1750639745
66 2 4.7782400915 2.079827988 6.0154076746
67 2 6.0154076746 8.7138196161 4.7782400915
68 2 4.7782400915 7.476652033 0.6185839535
69 2 6.0154076746 3.3169957331 10.1750639745
70 2 4.7782400915 7.476652033 6.0154076746
71 2 6.0154076746 3.3169957331 4.7782400915
72 2 10.1750639745 2.079827988 0.6185839535
73 2 0.6185837916 8.7138196161 10.1750639745
74 2 10.1750639745 2.079827988 6.0154076746
75 2 0.6185837916 8.7138196161 4.7782400915
76 2 10.1750639745 7.476652033 0.6185839535
77 2 0.6185837916 3.3169957331 10.1750639745
78 2 10.1750639745 7.476652033 6.0154076746
79 2 0.6185837916 3.3169957331 4.7782400915
80 2 3.3169957331 3.3169957331 3.3169957331
81 2 7.476652033 7.476652033 7.476652033
82 2 3.3169957331 3.3169957331 8.7138196161
83 2 7.476652033 7.476652033 2.07982815
84 2 3.3169957331 8.7138196161 3.3169957331
85 2 7.476652033 2.07982815 7.476652033
86 2 3.3169957331 8.7138196161 8.7138196161
87 2 7.476652033 2.07982815 2.07982815
88 2 8.7138196161 3.3169957331 3.3169957331
89 2 2.07982815 7.476652033 7.476652033
90 2 8.7138196161 3.3169957331 8.7138196161
91 2 2.07982815 7.476652033 2.07982815
92 2 8.7138196161 8.7138196161 3.3169957331
93 2 2.07982815 2.07982815 7.476652033
94 2 8.7138196161 8.7138196161 8.7138196161
95 2 2.07982815 2.07982815 2.07982815
96 3 0.0 0.0 0.0
