# Structure data of Rh (2x2x2 conventional) 

32 atoms
1 atom types

0.0 7.6877961159 xlo xhi
0.0 7.6877961159 ylo yhi
0.0 7.6877961159 zlo zhi
0.000000    0.000000    0.000000   xy xz yz

Masses

1 102.9055  # Rh

Atoms  # atomic

1 1 0.0 0.0 0.0
2 1 0.0 0.0 3.843898058
3 1 0.0 3.843898058 0.0
4 1 0.0 3.843898058 3.843898058
5 1 3.843898058 0.0 0.0
6 1 3.843898058 0.0 3.843898058
7 1 3.843898058 3.843898058 0.0
8 1 3.843898058 3.843898058 3.843898058
9 1 0.0 1.921949029 1.921949029
10 1 0.0 1.921949029 5.7658470869
11 1 0.0 5.7658470869 1.921949029
12 1 0.0 5.7658470869 5.7658470869
13 1 3.843898058 1.921949029 1.921949029
14 1 3.843898058 1.921949029 5.7658470869
15 1 3.843898058 5.7658470869 1.921949029
16 1 3.843898058 5.7658470869 5.7658470869
17 1 1.921949029 0.0 1.921949029
18 1 1.921949029 0.0 5.7658470869
19 1 1.921949029 3.843898058 1.921949029
20 1 1.921949029 3.843898058 5.7658470869
21 1 5.7658470869 0.0 1.921949029
22 1 5.7658470869 0.0 5.7658470869
23 1 5.7658470869 3.843898058 1.921949029
24 1 5.7658470869 3.843898058 5.7658470869
25 1 1.921949029 1.921949029 0.0
26 1 1.921949029 1.921949029 3.843898058
27 1 1.921949029 5.7658470869 0.0
28 1 1.921949029 5.7658470869 3.843898058
29 1 5.7658470869 1.921949029 0.0
30 1 5.7658470869 1.921949029 3.843898058
31 1 5.7658470869 5.7658470869 0.0
32 1 5.7658470869 5.7658470869 3.843898058
