# Structure data of Tc (2x2x2 conventional) 

16 atoms
1 atom types

0.0 5.5214328766 xlo xhi
0.0 4.7817007688 ylo yhi
0.0 8.8426799774 zlo zhi
-2.760717075 0.0 0.0 xy xz yz

Masses

1 98.0  # Tc

Atoms  # atomic

1 1 1.3803581517 0.7969501536 3.3160049915
2 1 1.3803581517 0.7969501536 7.7373449802
3 1 -4.2722739613e-07 3.1878006098 3.3160049915
4 1 -4.2722739613e-07 3.1878006098 7.7373449802
5 1 4.1410747556 0.7969501536 3.3160049915
6 1 4.1410747556 0.7969501536 7.7373449802
7 1 2.7607161767 3.1878006098 3.3160049915
8 1 2.7607161767 3.1878006098 7.7373449802
9 1 -2.0947262325e-07 1.5939003025 1.1053349972
10 1 -2.0947262325e-07 1.5939003025 5.5266749859
11 1 -1.3803588298 3.9847508303 1.1053349972
12 1 -1.3803588298 3.9847508303 5.5266749859
13 1 2.7607163116 1.5939003025 1.1053349972
14 1 2.7607163116 1.5939003025 5.5266749859
15 1 1.3803576913 3.9847508303 1.1053349972
16 1 1.3803576913 3.9847508303 5.5266749859
