Random disp. with mag 0.040000 : 11

64 atoms
1 atom types

0.000000   10.800000   xlo xhi
0.000000   10.800000   ylo yhi
0.000000   10.800000   zlo zhi
0.000000    0.000000    0.000000   xy xz yz

Masses

 1 28.085 # Si

Atoms

    1   1   0.005274084815312  -0.021333360776523  -0.033422623286325
    2   1   0.007381575926036  -0.005568131514515   5.438916683418365
    3   1   0.020059828980434   2.727808193180600   2.679401270590005
    4   1   0.022114349812873   2.697308828765445   8.066777821718915
    5   1  -0.002807448773542   5.426541511959557   0.029793730452642
    6   1   0.020939276352987   5.370684678472231   5.382617289350141
    7   1   0.039867193731276   8.101001316841407   2.696900931014638
    8   1   0.034642127690088   8.090806932231956   8.117759799945826
    9   1   1.339445985173516   1.320898151218764   1.324668297164296
   10   1   1.335017160258101   1.314748049575959   6.761524517541725
   11   1   1.333896191764939   4.086145232472477   4.044152818641521
   12   1   1.355923908959372   4.011303933224889   9.458217160018961
   13   1   1.320986797194041   6.745711480147861   1.322799951095299
   14   1   1.312232285012765   6.737988280877456   6.755414638341026
   15   1   1.368996225123355   9.432017326409735   4.080261640431556
   16   1   1.346023070999685   9.477472334665487   9.421199741949872
   17   1   2.691125628589671  -0.038749770463524   2.695561439299081
   18   1   2.679430161697243  -0.014099370255300   8.068725577373797
   19   1   2.680907480842736   2.731354812808982   0.015885572886844
   20   1   2.693513944291909   2.686713630583953   5.362832763499396
   21   1   2.678923693711974   5.431511593627886   2.687240345604825
   22   1   2.708308266527540   5.369961910069472   8.074926391152591
   23   1   2.685864002610245   8.108818484154050  -0.036364926990462
   24   1   2.705393481802817   8.107140360673888   5.438986223252445
   25   1   4.054110893641032   1.376097551682022   4.080033620322504
   26   1   4.028818587924265   1.316068901230288   9.450168281781380
   27   1   4.063932670293545   4.030430088692629   1.381982796467992
   28   1   4.082935550590803   4.056331884639246   6.728201909620429
   29   1   4.044102421949345   6.714867701473903   4.068191761140956
   30   1   4.010651122371346   6.752623338649373   9.443307920824140
   31   1   4.059885280725065   9.414224899425447   1.364913866160970
   32   1   4.083737155725832   9.469868436147939   6.741811619905859
   33   1   5.370051362393174  -0.001364511204904   0.026480506314395
   34   1   5.382975589500717  -0.032364812645688   5.383792336702616
   35   1   5.409016537044386   2.708688742951517   2.737989574960108
   36   1   5.380271947880496   2.734772072498406   8.101306496741573
   37   1   5.404639942277235   5.413360034841538  -0.037416312013570
   38   1   5.409831855609720   5.393706603099558   5.438258695360966
   39   1   5.439503409312413   8.106171125386131   2.698817686943072
   40   1   5.394926588093812   8.120810774259631   8.133781239858015
   41   1   6.783171453386988   1.368289554493061   1.337149051527600
   42   1   6.731551031618335   1.383970248371468   6.739721002420805
   43   1   6.753417865411085   4.018446815223427   4.074345733229606
   44   1   6.714557734148765   4.032558364796929   9.443704354459360
   45   1   6.710659858212839   6.744109645123795   1.354202018990727
   46   1   6.759351311836957   6.778717332666382   6.776227233393104
   47   1   6.729004166223288   9.459295583306327   4.017246876560916
   48   1   6.763323460678838   9.466488594504067   9.483920666957179
   49   1   8.123009851542722   0.032545686073542   2.696634728839412
   50   1   8.102761993462689   0.009395708360759   8.061217374295806
   51   1   8.112815289615956   2.663552718941673   0.010361662777492
   52   1   8.125411630445907   2.678141768472245   5.421828118392562
   53   1   8.090845720266554   5.413834486274586   2.736397886643047
   54   1   8.066802389582813   5.419221401247366   8.088666139374579
   55   1   8.138870605511750   8.102753942712475   0.009027282353306
   56   1   8.101183897603418   8.136612741000295   5.383934335279550
   57   1   9.480121296027551   1.332772582316389   4.030102170832601
   58   1   9.487221706293150   1.356159548067106   9.436710735602171
   59   1   9.484457947812183   4.063349851581817   1.334688850620667
   60   1   9.446312269705338   4.089222768689900   6.743073596779534
   61   1   9.459399759216815   6.750631336518712   4.011125253172965
   62   1   9.423697743544505   6.741807367576205   9.420998757279763
   63   1   9.419073099567727   9.443060516354226   1.325599786960308
   64   1   9.470895713289185   9.465046876659963   6.780609813278033

