Random disp. with mag 0.040000 : 16

64 atoms
1 atom types

0.000000   10.800000   xlo xhi
0.000000   10.800000   ylo yhi
0.000000   10.800000   zlo zhi
0.000000    0.000000    0.000000   xy xz yz

Masses

 1 28.085 # Si

Atoms

    1   1  -0.016704178740588   0.025751471673295  -0.025648238131731
    2   1   0.011181253021131  -0.009514285852088   5.362791695206552
    3   1  -0.037642838724194   2.713362895583537   2.697890565381956
    4   1   0.030829048099792   2.676210904109174   8.090854033131606
    5   1   0.033985621972090   5.415705538861854   0.014082384323295
    6   1  -0.007506401775598   5.416326121967514   5.364263300741603
    7   1   0.017872547389214   8.103431165724551   2.735620207068334
    8   1   0.011015038430708   8.137549415688309   8.091710831776551
    9   1   1.336381592940801   1.350389244278107   1.312391656802487
   10   1   1.374259362444389   1.378294987556597   6.764521605040898
   11   1   1.351898179439981   4.015135647204142   4.069515988802507
   12   1   1.381425246846998   4.060561634043119   9.472380923728577
   13   1   1.318118681165727   6.728435454560672   1.339111846374039
   14   1   1.364250517463942   6.714613140817303   6.762028838231261
   15   1   1.311040527097166   9.442239000717626   4.045317440734777
   16   1   1.357664520727882   9.468378211694105   9.415308553547906
   17   1   2.710486357237083   0.000583015499433   2.661403414596319
   18   1   2.735698241376298  -0.016899103226023   8.106328970911276
   19   1   2.721325633971824   2.733418986519593   0.005328102448632
   20   1   2.661838087224439   2.708579587245583   5.391629868817883
   21   1   2.705365448406322   5.394764621982453   2.660708744224542
   22   1   2.701382735922377   5.433325836036481   8.077921125621113
   23   1   2.660831651973577   8.096304212337962   0.007223687869651
   24   1   2.735985558547430   8.082586900907492   5.398649608936640
   25   1   4.027572047887756   1.317154966477130   4.054265060015108
   26   1   4.088409297164139   1.354854406244058   9.439942135844300
   27   1   4.017807999930603   4.031806544056232   1.334746367896331
   28   1   4.030048868530062   4.023337399519179   6.772159830519871
   29   1   4.051581868831377   6.710352289998572   4.055055371662198
   30   1   4.079710006558268   6.724529320960952   9.441719902198798
   31   1   4.083194765654867   9.436029722120310   1.332594860842765
   32   1   4.049136402049262   9.434859681611353   6.712986151812195
   33   1   5.428965541694536   0.007184553051199   0.026634180892166
   34   1   5.403185397950197   0.036502222913761   5.416044966882264
   35   1   5.398548144825019   2.696835467637287   2.739848185046200
   36   1   5.374126483331634   2.701494038900736   8.130468491642594
   37   1   5.428384040996883   5.426998418719122   0.008088980365551
   38   1   5.426027406637076   5.425416927172600   5.416629910307968
   39   1   5.438475726651130   8.092185803247311   2.707652240703076
   40   1   5.360757152473367   8.096018153026186   8.106644081025886
   41   1   6.736529184848798   1.314967918572371   1.336169222364229
   42   1   6.740155344459047   1.379795755668091   6.725194845264595
   43   1   6.764181461407295   4.084720093675494   4.063906877705592
   44   1   6.751551798333876   4.073188406599074   9.417444052443109
   45   1   6.782536179095391   6.744459665965445   1.327401288783248
   46   1   6.740928336641448   6.755894823165755   6.788509167528701
   47   1   6.738351828179017   9.411742937914907   4.049153067980131
   48   1   6.755477239118486   9.437568019662875   9.412377590234858
   49   1   8.104875464437146  -0.032101269556674   2.676638956800436
   50   1   8.088557895388584   0.033172469606649   8.119200664109801
   51   1   8.107347259915439   2.698186857588810   0.039277605404756
   52   1   8.069374623466212   2.714896959465449   5.379019844832595
   53   1   8.133943964742288   5.383690657868420   2.686516209108364
   54   1   8.097049103770582   5.395115280617602   8.139590803578589
   55   1   8.138390868652829   8.094842623954074  -0.009977107617043
   56   1   8.086460352451011   8.126709814442190   5.373480879412904
   57   1   9.439846337072481   1.387980231109733   4.057375986307311
   58   1   9.465270087703775   1.365513581216504   9.483558206438335
   59   1   9.486970097167310   4.058797225784527   1.362482817547961
   60   1   9.475545618779620   4.076958910211511   6.764853905929887
   61   1   9.418371460477994   6.774074289322341   4.045520705264309
   62   1   9.435566502570966   6.728192654366214   9.419732627659892
   63   1   9.479345607875091   9.423525067953197   1.343842624620950
   64   1   9.420565371057357   9.475263311792132   6.759765638550677

