Random disp. with mag 0.040000 : 4

64 atoms
1 atom types

0.000000   10.800000   xlo xhi
0.000000   10.800000   ylo yhi
0.000000   10.800000   zlo zhi
0.000000    0.000000    0.000000   xy xz yz

Masses

 1 28.085 # Si

Atoms

    1   1   0.039394955297171   0.004750361943629   0.005046935559173
    2   1  -0.001074875051243  -0.033837502398195   5.378695820243991
    3   1   0.030645019938675   2.711770273879369   2.722854833312953
    4   1   0.036543533391975   2.688586535238013   8.111588916660176
    5   1   0.010487733710229   5.363116438528893   0.011384653478714
    6   1  -0.032404515906823   5.376811273514289   5.403497186414151
    7   1  -0.015246096715383   8.096423774680099   2.736807161632032
    8   1  -0.030255344665707   8.098592732030543   8.126127260017487
    9   1   1.310233606284254   1.346312527410961   1.352244209604595
   10   1   1.352673906209093   1.341220634836249   6.711067070840913
   11   1   1.320441366804523   4.027351612673097   4.064606086235054
   12   1   1.314431155117723   4.031704765099489   9.450376369068408
   13   1   1.367739158136559   6.763068907554808   1.383384516230283
   14   1   1.383397187115573   6.767355738185929   6.763542756174017
   15   1   1.387779027207178   9.451057802148052   4.036899383300971
   16   1   1.385335360299681   9.452510696331082   9.431422898061731
   17   1   2.673781938976449   0.008122299877268   2.729097105025571
   18   1   2.700341377561287  -0.000710762172441   8.060007772273917
   19   1   2.662329572877595   2.703273953074486   0.013046844510518
   20   1   2.708491953340458   2.732172401778659   5.377800376303730
   21   1   2.667620424339042   5.381587219429576   2.714578497579715
   22   1   2.681719880204743   5.389924478867498   8.065877850387475
   23   1   2.685754558407006   8.088080066561204   0.035425733311186
   24   1   2.704919107463062   8.095056585308566   5.439387371490814
   25   1   4.016021029891196   1.330619207581379   4.058355505704105
   26   1   4.027572232495116   1.324607771746519   9.471265699825539
   27   1   4.033556609147269   4.023750163860314   1.324690693413213
   28   1   4.071567852368640   4.019501253165829   6.735694260391377
   29   1   4.063808300729508   6.783680259807600   4.066582247442854
   30   1   4.045919650494015   6.737829118662336   9.487884302756861
   31   1   4.051577488094140   9.410448721322672   1.355762628419502
   32   1   4.023729106840726   9.430949726870955   6.726613523858375
   33   1   5.430795116167623  -0.008878906695903  -0.023933780230212
   34   1   5.435371945430126   0.009245772513071   5.383772210035722
   35   1   5.438057661015891   2.696424008540888   2.711782475252848
   36   1   5.375501742210886   2.698384614729070   8.131578883699785
   37   1   5.398557127099002   5.433555927462136   0.021723670268799
   38   1   5.407829671549909   5.437874691961720   5.410208033710044
   39   1   5.374603394812808   8.092670107280897   2.730021410987699
   40   1   5.435915970507247   8.085080524348559   8.090648406081920
   41   1   6.763324846406742   1.341819297004973   1.313182550784392
   42   1   6.728158910530512   1.382093410650961   6.740357396431741
   43   1   6.749530098243735   4.059997454762811   4.011272360120903
   44   1   6.762816800854275   4.070937101513516   9.418418875952959
   45   1   6.731560282248644   6.784360538266802   1.341093248669354
   46   1   6.718523584738910   6.726841275595027   6.741461336975501
   47   1   6.714527025260600   9.442210692753056   4.066762898190666
   48   1   6.761132499308834   9.411586878250780   9.450706779045044
   49   1   8.112957709073120  -0.003630715940741   2.737668497147272
   50   1   8.106276518640970  -0.039330836863175   8.103700079106165
   51   1   8.079355628873348   2.716525462157212   0.030011981628604
   52   1   8.128117543156327   2.726422570822371   5.389452416485806
   53   1   8.097666100256367   5.387451756556997   2.662090970752579
   54   1   8.076127565301153   5.378369723877725   8.076288441290725
   55   1   8.079064037742230   8.084574096170348  -0.030392877050052
   56   1   8.109148331940812   8.098575729074630   5.438913744037704
   57   1   9.471490350927475   1.326781105201804   4.025524548188761
   58   1   9.422081678490201   1.334372184781132   9.425992944462918
   59   1   9.457785953968388   4.071284460303924   1.317040165801800
   60   1   9.463292124176467   4.083959563326093   6.766433730361013
   61   1   9.464716369722947   6.714442549893096   4.039086879269772
   62   1   9.426459780508708   6.759892982810017   9.419210603165658
   63   1   9.480113299682621   9.444278193481379   1.375699223964705
   64   1   9.471475459330753   9.425795677906677   6.773515004540418

