Random disp. with mag 0.040000 : 18

64 atoms
1 atom types

0.000000   10.800000   xlo xhi
0.000000   10.800000   ylo yhi
0.000000   10.800000   zlo zhi
0.000000    0.000000    0.000000   xy xz yz

Masses

 1 28.085 # Si

Atoms

    1   1  -0.002615723726128   0.026242518603640   0.030074710417994
    2   1  -0.008759719715092   0.028322931999919   5.373147088920548
    3   1   0.007572611579266   2.706115904044221   2.738797567856651
    4   1   0.002695806096757   2.739261538873467   8.107159901869156
    5   1  -0.037721218501613   5.388111247488079   0.005980571750583
    6   1   0.028970114856689   5.383414902723245   5.422037853650272
    7   1   0.003641777270344   8.062379263014860   2.686907345303259
    8   1  -0.020992633759947   8.087770827983594   8.131776668793533
    9   1   1.382119997077858   1.336377128701906   1.330436688283577
   10   1   1.313865110560879   1.347758741426009   6.767007249196356
   11   1   1.362580512855902   4.028901964740665   4.081569029197591
   12   1   1.325095128076429   4.025300999266041   9.469227759027365
   13   1   1.330389737509178   6.739667069556346   1.316703331195333
   14   1   1.388339839987694   6.738856206156361   6.752423330041188
   15   1   1.349687297885734   9.416761780530711   4.027748640852765
   16   1   1.356403742354894   9.420814295060952   9.476592982364958
   17   1   2.677324240324920   0.026137666164641   2.720065700352188
   18   1   2.674781560239050  -0.030658543128716   8.104907548191102
   19   1   2.671314169187184   2.690607244560113   0.026246890402959
   20   1   2.665505804726806   2.708509577062599   5.418377638332236
   21   1   2.696261576471009   5.422201061318137   2.733062623396613
   22   1   2.682495254174949   5.428300363505692   8.077803754843531
   23   1   2.722664883638167   8.094343015423698   0.032470010396854
   24   1   2.711888014138173   8.126922526821136   5.372910284803717
   25   1   4.057921071667102   1.382203914133619   4.072364358656557
   26   1   4.089532432064185   1.344541014423529   9.447282226726431
   27   1   4.016634288824020   4.057068277911729   1.329100986504535
   28   1   4.080829020117982   4.033937123365612   6.769787761692355
   29   1   4.022207040291910   6.764805887388557   4.025335509547086
   30   1   4.016156338429699   6.765839802158070   9.464272604496312
   31   1   4.083092358374731   9.429857959998760   1.359959620564401
   32   1   4.039448813553273   9.412357275279598   6.741532548187883
   33   1   5.401364845685280  -0.008499591778408  -0.039062694938468
   34   1   5.411777774642148  -0.020461681342598   5.432289373191698
   35   1   5.401908285449535   2.660176926700341   2.696762519557887
   36   1   5.391618829475187   2.710000563135283   8.062188034729584
   37   1   5.369992047510181   5.389225067748300   0.024154163664677
   38   1   5.406391213764276   5.362569566931253   5.412574381372669
   39   1   5.427817931464483   8.128602925944422   2.697165336624015
   40   1   5.379825782429994   8.082635775441961   8.070142259781823
   41   1   6.788606316410424   1.360459436147259   1.349609450771778
   42   1   6.727197038244840   1.365314929537434   6.779077102133056
   43   1   6.714495287439681   4.058535592585669   4.066326636065664
   44   1   6.771613872783584   4.080231169215672   9.435204158991514
   45   1   6.767027047771498   6.765029321736225   1.382927179234429
   46   1   6.769900401830168   6.739416928077543   6.783045008634920
   47   1   6.758430747705459   9.461511219180936   4.087368627565048
   48   1   6.782277950386433   9.426884895719157   9.445118824635731
   49   1   8.116891251521114  -0.003448278680818   2.663905748432890
   50   1   8.066837293840745   0.020025927281638   8.090040223059450
   51   1   8.111912557877861   2.667268888173772  -0.019666349011079
   52   1   8.065524455101071   2.720279266105154   5.399566214156078
   53   1   8.116433771009524   5.408139588964525   2.664451747414323
   54   1   8.113720602393213   5.423487328506563   8.129327299050409
   55   1   8.091188688590451   8.113365557738968   0.036656822796995
   56   1   8.111963212741962   8.062751507442178   5.391667452786788
   57   1   9.480533255746257   1.329091606921831   4.034815817690032
   58   1   9.459751366691028   1.323999208158436   9.478790096756850
   59   1   9.411234260643305   4.041035956824834   1.345893495150066
   60   1   9.434655927678907   4.035670494794923   6.784047389403341
   61   1   9.446949989684972   6.777060641716273   4.020701209803446
   62   1   9.447748373740019   6.732145756706045   9.414276671829382
   63   1   9.442676070155001   9.487920828549866   1.360410130341024
   64   1   9.450432797353953   9.435831166829407   6.787403968412915

