Random disp. with mag 0.040000 : 15

64 atoms
1 atom types

0.000000   10.800000   xlo xhi
0.000000   10.800000   ylo yhi
0.000000   10.800000   zlo zhi
0.000000    0.000000    0.000000   xy xz yz

Masses

 1 28.085 # Si

Atoms

    1   1  -0.030160155123540  -0.001544180005248  -0.026229383352176
    2   1  -0.007260353484184   0.033782815476712   5.379850343780820
    3   1   0.014287859909527   2.731885108486254   2.719472979125587
    4   1   0.012586204826057   2.737967329260129   8.100263357038106
    5   1  -0.017238134457904   5.365336708063811  -0.010064934801467
    6   1   0.017236473775279   5.367256289974450   5.384809429715881
    7   1   0.003075993599467   8.118979373008528   2.735075941378375
    8   1   0.029875224434983   8.102982332403531   8.126430600795180
    9   1   1.317266408945676   1.371243367547809   1.358788136999216
   10   1   1.366949605659565   1.383588268658830   6.736415483943566
   11   1   1.362534418248024   4.086222970143000   4.038563882074631
   12   1   1.382706751475284   4.046937302116496   9.427177022770717
   13   1   1.350258934351864   6.727274010830172   1.317084010431794
   14   1   1.317263649113348   6.750779192576941   6.727027751752298
   15   1   1.365895249324411   9.425043031999117   4.023083633285346
   16   1   1.327088949781575   9.423706874416986   9.469589673937172
   17   1   2.667086553272996   0.010837698573563   2.719981224041015
   18   1   2.707110847668436  -0.014062498205158   8.136765227996928
   19   1   2.678120171184516   2.725522059446783  -0.021677120948132
   20   1   2.719558334325360   2.719732904316662   5.371223550503113
   21   1   2.706320885372269   5.437070577631540   2.686368467357827
   22   1   2.720985843501978   5.426950976160003   8.079185599779636
   23   1   2.704429771247395   8.097729221116177   0.039689050000681
   24   1   2.661813490784354   8.111887504613087   5.399308806830768
   25   1   4.074779728235443   1.335915518723800   4.021935922324830
   26   1   4.011712768690289   1.359132114073786   9.442880139665689
   27   1   4.069100236038781   4.069473410511988   1.320743081736204
   28   1   4.076409046090519   4.045772906687985   6.779743805518466
   29   1   4.052333045263587   6.746491967321108   4.010222486169672
   30   1   4.011948338465577   6.761829520418498   9.453483317547686
   31   1   4.080376312082057   9.460985426922136   1.326407627087725
   32   1   4.082397384146124   9.472988794854373   6.745317606207080
   33   1   5.407062712141552  -0.034023244261012  -0.019812545196443
   34   1   5.401901986417201  -0.020077974465973   5.365456442148897
   35   1   5.439039262658757   2.706699804730512   2.694427874047221
   36   1   5.434054816729800   2.685062236753700   8.114735422854375
   37   1   5.424222124812886   5.387917885585256  -0.029450147381941
   38   1   5.412010147840394   5.369798885302409   5.423316282291026
   39   1   5.395987152964161   8.061739011627321   2.710954169407704
   40   1   5.377168430128277   8.106194807427759   8.132254360606368
   41   1   6.777414679956760   1.379009175831009   1.352627363787908
   42   1   6.716246295912817   1.366429791383138   6.763811206156648
   43   1   6.768469419656030   4.073725959418682   4.023618957806173
   44   1   6.744913728362422   4.080172840488549   9.475762948932164
   45   1   6.776480769179917   6.767199458785864   1.325445011074869
   46   1   6.733955007534965   6.752271152386288   6.786570481041889
   47   1   6.784379905112140   9.468559015791271   4.041421826689816
   48   1   6.714205088135573   9.433307461252154   9.456331147981972
   49   1   8.094390536450796   0.039276959020544   2.694915276921141
   50   1   8.061708889070294  -0.002171585866743   8.088638880398817
   51   1   8.079885841987323   2.674326300175406  -0.023157758629836
   52   1   8.074466401076020   2.674056986283967   5.416582984210301
   53   1   8.111812481548831   5.405463018100704   2.662176452930881
   54   1   8.114660342836014   5.420260535833886   8.131218344537377
   55   1   8.126796680324205   8.099586462891548   0.029694560287405
   56   1   8.126715145895764   8.100812251826664   5.429759724910324
   57   1   9.419637179583180   1.363095727827933   4.027492200263182
   58   1   9.445694965749556   1.312059669364862   9.438083708991513
   59   1   9.477379160524592   4.072869956142847   1.368092724366242
   60   1   9.466277143957182   4.015692838929318   6.737427280172239
   61   1   9.431336485408204   6.757674618854346   4.084536552354315
   62   1   9.449002649330808   6.710072661479382   9.452193839169725
   63   1   9.458382474606028   9.470651013680422   1.316784495285330
   64   1   9.475608210890346   9.443293289892287   6.779987323563909

