ITEM: TIMESTEP
0
ITEM: NUMBER OF ATOMS
64
ITEM: BOX BOUNDS xy xz yz pp pp pp
0.0000000000000000e+00 1.0800000000000001e+01 0.0000000000000000e+00
0.0000000000000000e+00 1.0800000000000001e+01 0.0000000000000000e+00
0.0000000000000000e+00 1.0800000000000001e+01 0.0000000000000000e+00
ITEM: ATOMS id xu yu zu fx fy fz
     1    0.000556000000000    0.004299000000000   -0.039764000000000    0.333392906620390   -0.150892433897798    0.714024490370122
     2   -0.026715000000000    0.026272000000000    5.385998000000000    0.291367428973981   -0.495437370529090    0.081233009028759
     3    0.022708000000000    2.675307000000000    2.721785000000000   -0.077891742970338    0.200339562719293   -0.060162647387102
     4   -0.003999000000000    2.739762000000000    8.098262000000000    0.219504661608430   -0.882475615542167    0.038311816696456
     5   -0.032355000000000    5.376527000000000    0.001466000000000    0.220974639795210    0.007306476089281    0.322471822505964
     6    0.023754000000000    5.407939000000000    5.368811000000000    0.005975014038871   -0.365979718987309    0.657288621091139
     7    0.014334000000000    8.074987999999999    2.727729000000000   -0.157376537182899    0.265199560858445   -0.342505536230198
     8   -0.003674000000000    8.088919000000001    8.138258000000000    0.352909822413451   -0.027290695129959   -0.416735721422304
     9    1.382418000000000    1.370981000000000    1.339565000000000   -0.527877365178046   -0.437768673033459    0.123933091789765
    10    1.360661000000000    1.311513000000000    6.752259000000000   -0.247241537387083    0.505850690441601   -0.033892046736536
    11    1.388411000000000    4.058574000000000    4.042850000000000   -0.319892670691398    0.022331808767909   -0.189820500022825
    12    1.312143000000000    4.048880000000000    9.462870000000001    0.636855099412649    0.094497668656679    0.006727753316504
    13    1.332869000000000    6.759699000000000    1.315180000000000    0.138115464729162   -0.284344317993039    0.364468879422447
    14    1.386927000000000    6.744459000000000    6.764341000000000   -0.520555657558303    0.290646771267434   -0.187335352769756
    15    1.387000000000000    9.445314000000000    4.035541000000000   -0.374565830091883    0.244575252544396    0.205519068394471
    16    1.348486000000000    9.425063000000000    9.481239000000000    0.332897782070106    0.329850408558041   -0.458625450366178
    17    2.715039000000000    0.036942000000000    2.703016000000000   -0.005265656335764   -0.616626694059632   -0.324161603371722
    18    2.735656000000000    0.013357000000000    8.087742000000000   -0.269506072490824   -0.306956464753918    0.389515720759374
    19    2.713213000000000    2.706521000000000    0.037187000000000   -0.100568294505773    0.220556556894319   -0.636342147442148
    20    2.679983000000000    2.684691000000000    5.368936000000000    0.061695477555701    0.259720441004223    0.816286733296050
    21    2.734277000000000    5.394186000000000    2.680220000000000   -0.331887091867523    0.194965696573565   -0.246760582141226
    22    2.707405000000000    5.434536000000000    8.118774000000000   -0.298243300730118   -0.563890584025667    0.167387134023087
    23    2.719849000000000    8.121086999999999    0.027592000000000   -0.328162029972575   -0.371430620303248   -0.214185108909955
    24    2.721104000000000    8.123144000000000    5.424879000000000   -0.164131271822293   -0.036903996190488   -0.058677574195499
    25    4.013878000000000    1.366485000000000    4.054842000000000    0.812788631160301   -0.199963636570258    0.070825776822766
    26    4.061087000000000    1.346203000000000    9.488244999999999   -0.331784356967076    0.483165424610907   -0.635667156713327
    27    4.082583000000000    4.046082000000000    1.327131000000000    0.003369177761117    0.357311083610513    0.096831451810879
    28    4.034710000000000    4.081582000000000    6.769203000000000   -0.285500160300791   -0.337511699253183   -0.263633376370704
    29    4.019362000000000    6.740436000000000    4.073871000000000    0.263533927804363    0.261250481576069   -0.262033272435093
    30    4.025306000000000    6.737437000000000    9.478851000000001    0.379248865912158    0.434399401786989   -0.126537586568134
    31    4.067378000000000    9.414451000000000    1.344145000000000    0.237244709993180    0.743919880053255    0.407503302262943
    32    4.088218000000000    9.461436000000001    6.752931000000000   -0.217126838317046    0.219211139918158   -0.114806432229383
    33    5.394601000000000    0.032283000000000   -0.022993000000000    0.328188073819412   -0.560417350382131    0.671305822124505
    34    5.438477000000000   -0.000765000000000    5.410905000000000   -0.281510605563089    0.140720305732437   -0.428779819316170
    35    5.389778000000000    2.735642000000000    2.715004000000000   -0.113783661076138   -0.505821646116035   -0.063348352790200
    36    5.380848000000000    2.735039000000000    8.097667000000000   -0.057592941706924   -0.354529439282420   -0.036192356683729
    37    5.428902000000000    5.408735000000000   -0.026237000000000   -0.216160132201574   -0.158207330816492    0.018437353316497
    38    5.361283000000000    5.406674000000000    5.407515000000000    0.588496385996922   -0.169614730312194   -0.081276472312981
    39    5.429599000000000    8.101428000000000    2.726867000000000   -0.644669032868256   -0.231301800819602   -0.094542862499790
    40    5.377532000000000    8.131570999999999    8.109921999999999    0.184439849658422   -0.633019735085939    0.183676989691473
    41    6.732074000000000    1.385445000000000    1.354728000000000   -0.112904762132336   -0.403267620646212    0.261692350431414
    42    6.743187000000000    1.387308000000000    6.737285000000000   -0.093316609523503   -0.462409973367740    0.532160285077190
    43    6.759582000000000    4.011889000000000    4.042532000000000   -0.126163203698750    0.787396757549502    0.270725416704143
    44    6.746368000000000    4.055128000000000    9.410496999999999    0.381226468689888   -0.080004644404503    0.435937912502028
    45    6.710239000000000    6.753337000000000    1.352810000000000    0.486605183504775    0.112867002740181   -0.100829285298769
    46    6.732671000000000    6.780017000000000    6.730034000000000    0.190944288887371   -0.177476217061914    0.295434478235390
    47    6.765412000000000    9.445641000000000    4.013347000000000    0.214501243925427    0.272004545057620    0.569690188998166
    48    6.733183000000000    9.427388000000001    9.478388000000001    0.192404166645137    0.193533904119457   -0.111234610053898
    49    8.106450000000001    0.033967000000000    2.720115000000000   -0.309248161810208   -0.520641609781057   -0.877862045303904
    50    8.075684000000001   -0.031759000000000    8.100268000000000    0.071094173527459    0.392957396720037    0.139235866780845
    51    8.085749000000000    2.685454000000000    0.034428000000000    0.290702214920719    0.186690172298475   -0.624715138408824
    52    8.076458000000001    2.669815000000000    5.388398000000000    0.432264535048753    0.453432187020372    0.140043471830359
    53    8.071040000000000    5.427028000000000    2.694451000000000    0.222851379744962   -0.429888883260647    0.046235366047551
    54    8.131966000000000    5.406817000000000    8.123059000000000   -0.463381172745102    0.063845022574174   -0.618457716638014
    55    8.120069000000001    8.114615000000001    0.031363000000000   -0.423333746534124   -0.649186197802083   -0.522030238947394
    56    8.116576999999999    8.133072000000000    5.415213000000000    0.072725630486040   -0.327414502786175   -0.203664387439830
    57    9.413866000000001    1.341397000000000    4.035156000000000    0.587296118143449    0.326962490101576    0.304734815943301
    58    9.478278000000000    1.322633000000000    9.457167000000000   -0.668945260199013    0.505295542792724   -0.425565762243006
    59    9.454872000000000    4.018826000000000    1.374586000000000   -0.176177042219513    0.211813922050170    0.130819483579139
    60    9.442194000000001    4.018460000000000    6.773331000000000   -0.078307827454693    0.497370534956999   -0.690390428942265
    61    9.461346000000001    6.712441000000000    4.057787000000000   -0.331160713659576    0.511816150154013   -0.005255518934271
    62    9.477957000000000    6.721715000000000    9.445715999999999   -0.415057213820502    0.393496106219199    0.359578446604331
    63    9.439450000000001    9.441632000000000    1.312335000000000    0.534375842324634    0.468784027166322    0.882697467648389
    64    9.469106999999999    9.448930000000001    6.785125000000000    0.001299336462018    0.086589828907181   -0.248707296083158
