ITEM: TIMESTEP
0
ITEM: NUMBER OF ATOMS
64
ITEM: BOX BOUNDS xy xz yz pp pp pp
0.0000000000000000e+00 1.0800000000000001e+01 0.0000000000000000e+00
0.0000000000000000e+00 1.0800000000000001e+01 0.0000000000000000e+00
0.0000000000000000e+00 1.0800000000000001e+01 0.0000000000000000e+00
ITEM: ATOMS id xu yu zu fx fy fz
     1    0.031333000000000   -0.017941000000000   -0.017215000000000   -0.706978780205054    0.687989330009210    0.606292883850963
     2    0.033567000000000   -0.000545000000000    5.378253000000000   -0.471216813314485    0.198209897273653    0.299159683238004
     3   -0.006143000000000    2.733862000000000    2.679613000000000   -0.092185288917415   -0.445084554016617    0.114039550592495
     4    0.013565000000000    2.716735000000000    8.133704000000000   -0.065566060612132   -0.133813003717356   -0.248343262165731
     5    0.026895000000000    5.424727000000000    0.016286000000000   -0.804244397225701   -0.509192934908057   -0.237091545092852
     6   -0.001023000000000    5.374334000000000    5.369337000000000   -0.245882468258415    0.317028542817375    0.504735617157865
     7   -0.028109000000000    8.076490000000000    2.683964000000000    0.071953638265116    0.251956867922993   -0.062122645865046
     8   -0.028305000000000    8.110600000000000    8.073798999999999    0.748505209898847   -0.265416383370418    0.136198583567643
     9    1.357884000000000    1.368821000000000    1.384404000000000   -0.109425451118122   -0.340813563960815   -0.299406451607558
    10    1.389433000000000    1.356627000000000    6.748960000000000   -0.546961395297110   -0.096101164444517    0.192184252843031
    11    1.316078000000000    4.030061000000000    4.042807000000000    0.758629416125158    0.142447022928438    0.084198157390876
    12    1.345191000000000    4.077771000000000    9.478384000000000    0.341589142769407   -0.321901035138106   -0.091925645434499
    13    1.326659000000000    6.734515000000000    1.321444000000000    0.805929384833116    0.477895558348947    0.675763341037897
    14    1.380771000000000    6.755405000000000    6.725021000000000   -0.309495912238764   -0.287500622406982    0.176841876623512
    15    1.338283000000000    9.419439000000001    4.072994000000000    0.087534537888311    0.186776905159920   -0.723532882970043
    16    1.319799000000000    9.456962000000001    9.475288000000001    0.406051071072238   -0.538469519690623   -0.577928257888474
    17    2.729611000000000    0.023473000000000    2.713122000000000   -0.505503649003977   -0.165519643106867    0.336290360068609
    18    2.676082000000000   -0.032058000000000    8.099545000000001    0.153789258916702    0.065939827753456    0.048026313954347
    19    2.712902000000000    2.662692000000000    0.006452000000000   -0.176200714428312    0.247099936336919   -0.251878422913445
    20    2.732102000000000    2.688075000000000    5.420671000000000   -0.724218310222633    0.179182847711185   -0.350754595665831
    21    2.738654000000000    5.392735000000000    2.707286000000000   -0.731205004699200    0.274686704566801    0.079824985045597
    22    2.736005000000000    5.389709000000000    8.114062000000001   -0.500668175597361    0.305691788526343   -0.007343259387397
    23    2.729898000000000    8.095421000000000   -0.026175000000000   -0.735219344316803    0.387328038139301    0.607039032565498
    24    2.704499000000000    8.088411000000001    5.361981000000000    0.338541981476292    0.096072367562030    0.441123015111334
    25    4.051993000000000    1.381016000000000    4.075179000000000    0.258395332512516   -0.223063076092006   -0.408374657123901
    26    4.055138000000000    1.318158000000000    9.426342999999999   -0.187986036175590    0.414644036843744   -0.197922986406781
    27    4.010255000000000    4.054338000000000    1.348751000000000    0.550661838816873   -0.111792554087243   -0.303391464592342
    28    4.013933000000000    4.033023000000000    6.746693000000000    0.635869376638373    0.380587565466934    0.172000007954880
    29    4.087010000000000    6.760216000000000    4.038781000000000   -0.262708409356904    0.015534438277081   -0.177851216533533
    30    4.031698000000000    6.774036000000000    9.476216000000001    0.922427547699498   -0.481398011821629   -0.569302132378999
    31    4.025502000000000    9.481465999999999    1.353124000000000    0.361313645616339   -0.210030356195223   -0.185019439613261
    32    4.059613000000000    9.432085000000001    6.784448000000000   -0.160774659510735    0.278589182223613   -0.728107054222932
    33    5.382128000000000    0.031633000000000   -0.016731000000000    0.577250082435589   -0.375755280126817    0.303806126124728
    34    5.414607000000000    0.014120000000000    5.365544000000000   -0.451740093600555   -0.134338990261109    0.584847450746765
    35    5.380271000000000    2.734609000000000    2.703605000000000    0.319570682968341   -0.112647994069636   -0.018639541154161
    36    5.415088000000000    2.736712000000000    8.104960999999999   -0.383517911361117   -0.626170577977753   -0.307515204029827
    37    5.431355000000000    5.376777000000000   -0.008806000000000   -0.466861920029606    0.240040277468173    0.214283893977117
    38    5.372435000000000    5.387073000000000    5.374057000000000    0.329743334867650    0.074588984444004    0.512796046086014
    39    5.413647000000000    8.093662999999999    2.662938000000000   -0.213321706783158    0.688050863117363    0.491723588582968
    40    5.424149000000000    8.112080000000001    8.070489999999999   -0.188329994087816   -0.039938983561808    0.792796043586472
    41    6.784211000000000    1.366089000000000    1.363069000000000   -0.792207706066285   -0.089924842039922    0.066298272141536
    42    6.735395000000000    1.368540000000000    6.717705000000000   -0.032421063453659   -0.360538211818031    0.554533518449292
    43    6.776916000000000    4.055086000000000    4.079149000000000   -0.399611491549042   -0.351895192610580    0.013303303120003
    44    6.743989000000000    4.011079000000000    9.457004000000000    0.496394024809419    0.480594300143949    0.150781619764857
    45    6.731582000000000    6.749334000000000    1.385501000000000    0.533008216509402   -0.362728314670011   -0.690886082882927
    46    6.735809000000000    6.786198000000000    6.740601000000000    0.072623731914403   -0.598112447652148   -0.225791845968506
    47    6.766976000000000    9.480608999999999    4.069362000000000   -0.353989706895120   -0.409827566520502   -0.408360281976863
    48    6.789716000000000    9.450951999999999    9.454662000000001   -0.549918916118337    0.220341332220831   -0.193174325463000
    49    8.077183000000000    0.016867000000000    2.728193000000000    0.424351430500383   -0.145875960198534   -0.419755274660141
    50    8.121472000000001   -0.016720000000000    8.070684000000000   -0.426275526232016    0.310972093986021    0.025110156066100
    51    8.117765000000000    2.692360000000000    0.035015000000000   -0.154677572627419   -0.073720826031345   -0.533922010532313
    52    8.105771000000001    2.666583000000000    5.421214000000000    0.187400005295924    0.547952904444478   -0.101823109417036
    53    8.088462000000000    5.367989000000000    2.721028000000000   -0.069042376752625    0.341319617864142   -0.243865811126133
    54    8.080819999999999    5.429986000000000    8.118245999999999    0.048099777757828   -0.113940252281491   -0.058174051081566
    55    8.099496000000000    8.085604999999999   -0.037316000000000   -0.018650824342579   -0.108470330244403    0.603243420185361
    56    8.090425000000000    8.138406000000000    5.405771000000000    0.035681785967196   -0.631723142300752   -0.306401650320160
    57    9.434989000000000    1.379191000000000    4.027141000000000    0.481300476928226   -0.307592299723833    0.235464994675470
    58    9.413372000000001    1.350359000000000    9.433928999999999    0.582713215574592   -0.106838717168368    0.154857418134277
    59    9.417472999999999    4.033499000000000    1.366424000000000    0.454784304448630    0.605790072675813   -0.296320986310973
    60    9.428084999999999    4.050172000000000    6.783462000000000    0.229674712167243    0.098434838943849   -0.128684044975883
    61    9.419530999999999    6.735468000000000    4.028542000000000    0.183303080676613    0.160889518093599    0.367521139369673
    62    9.483950999999999    6.770850000000000    9.446448000000000   -0.224073203171323   -0.374211597943992   -0.000451204535093
    63    9.417151000000000    9.456484000000000    1.328115000000000    0.213330117482419    0.031978713493276    0.172899671754150
    64    9.434207000000001    9.413266000000000    6.751082000000000    0.450660520736729    0.745733575239786   -0.363922979624395
