ITEM: TIMESTEP
0
ITEM: NUMBER OF ATOMS
64
ITEM: BOX BOUNDS xy xz yz pp pp pp
0.0000000000000000e+00 1.0800000000000001e+01 0.0000000000000000e+00
0.0000000000000000e+00 1.0800000000000001e+01 0.0000000000000000e+00
0.0000000000000000e+00 1.0800000000000001e+01 0.0000000000000000e+00
ITEM: ATOMS id xu yu zu fx fy fz
     1   -0.019456000000000    0.015067000000000   -0.031535000000000    0.116636774596409   -0.446646119155512    0.529586830212708
     2   -0.007787000000000   -0.000670000000000    5.439229000000000    0.109147601799857   -0.171616419400783   -0.422125341803999
     3    0.015314000000000    2.736510000000000    2.705702000000000   -0.080663283681247   -0.816837810064051   -0.291785397974950
     4   -0.020215000000000    2.699557000000000    8.134513000000000    0.452330155560402    0.373364532151180   -0.696007331962440
     5   -0.022135000000000    5.417599000000000    0.028290000000000    0.311840837736287   -0.317825699773150   -0.598890911908262
     6   -0.032737000000000    5.408043000000000    5.421531000000000    0.814770432911322    0.015364162471885   -0.104295423877119
     7   -0.032606000000000    8.122785000000000    2.695790000000000    0.682348110410074   -0.434798990786004    0.407540903943560
     8   -0.010483000000000    8.137574000000001    8.108847000000001    0.619196473839036   -0.448924460816154    0.199993543707008
     9    1.346785000000000    1.318847000000000    1.325117000000000   -0.168501314516562    0.508794173444675    0.006172197890484
    10    1.338924000000000    1.367360000000000    6.715708000000000    0.063364256355906    0.210378143253097    0.510100866556032
    11    1.330581000000000    4.062456000000000    4.017324000000000    0.569174966793981    0.224041270415753    0.677004392570681
    12    1.383987000000000    4.059427000000000    9.431132000000000   -0.310551937798038   -0.098915264079419    0.406430703519556
    13    1.338308000000000    6.712845000000000    1.359101000000000    0.103178995158614    0.688632230990832    0.079668375482559
    14    1.366111000000000    6.766918000000000    6.782469000000000   -0.410844646380092   -0.238161752297855   -0.095158016277970
    15    1.365651000000000    9.486731000000001    4.047570000000000   -0.340013441390486   -0.353520851934631    0.050492123983326
    16    1.348326000000000    9.437868000000000    9.488079000000001    0.344714149696232    0.232406150335795   -0.256115823879049
    17    2.682251000000000    0.001752000000000    2.664196000000000    0.461081709154025    0.007945385894262    0.397516409770359
    18    2.701489000000000    0.031538000000000    8.075441000000000   -0.476561655394948   -0.212351600227971    0.287134941491556
    19    2.720412000000000    2.667178000000000   -0.010298000000000   -0.187229893012962    0.233136935210840    0.017302382410776
    20    2.738224000000000    2.690772000000000    5.407333000000000   -0.415041896672266    0.291117938267762   -0.370974948525840
    21    2.724615000000000    5.396504000000000    2.668665000000000   -0.261576624100846    0.278210997462287    0.737449195824343
    22    2.735257000000000    5.389680000000000    8.084175000000000   -0.466681501526442    0.145246882604965    0.083781816515999
    23    2.732291000000000    8.085305000000000    0.018476000000000   -0.508563649877792    0.012803046285563    0.175873416243571
    24    2.663288000000000    8.095990000000000    5.415368000000000    0.431666568588661    0.185259585846555   -0.304673163535907
    25    4.079824000000000    1.332184000000000    4.069827000000000   -0.326291666927153    0.141854408736187   -0.445624030579038
    26    4.059264000000000    1.352179000000000    9.411149000000000    0.073333494926392    0.068072787195093    0.219200020714773
    27    4.025861000000000    4.037028000000000    1.379139000000000    0.464121620961428   -0.486844339811488   -0.382815373923568
    28    4.059406000000000    4.084127000000000    6.731376000000000    0.040659493429857   -0.754258271609849    0.308889632987062
    29    4.082576000000000    6.753696000000000    4.072917000000000   -0.467064579459223    0.078859497942101   -0.148636641696125
    30    4.014221000000000    6.733109000000000    9.455882000000001    0.574184050368129    0.033866999861106    0.113801815540823
    31    4.075376000000000    9.430637000000001    1.374106000000000   -0.202548856242417    0.032177749105635   -0.073423832167547
    32    4.016920000000000    9.464043000000000    6.767565000000000    0.356120258034772   -0.133604132911104   -0.341962617473326
    33    5.360334000000000   -0.002589000000000    0.004459000000000    0.416529001499073   -0.014255675740326   -0.152042385959843
    34    5.418608000000000    0.033166000000000    5.412399000000000   -0.141962193234075   -0.751040955661973    0.148316098933691
    35    5.430546000000000    2.698678000000000    2.725792000000000   -0.557849801138560   -0.014108102426228   -0.147685279159842
    36    5.437651000000000    2.713066000000000    8.103422000000000   -0.430664856888016    0.005130880847633   -0.196554253011235
    37    5.379189000000000    5.367592000000000    0.010800000000000    0.136286475842866    0.145105660227044   -0.099741855191595
    38    5.395261000000000    5.405116000000000    5.439387000000000    0.198863931136935    0.078572073779965   -0.663274341516887
    39    5.431126000000000    8.076169999999999    2.692042000000000   -0.104634067573847    0.225992752264939    0.454879892861805
    40    5.374423000000000    8.111819000000001    8.128392000000000   -0.055605297738424   -0.461182110468778   -0.523010435441489
    41    6.721614000000000    1.338177000000000    1.375582000000000    0.346484247232631    0.074171357039953   -0.425668041338081
    42    6.742646000000000    1.330622000000000    6.784211000000000    0.584849532775613    0.210706272881550   -0.217242408684426
    43    6.727434000000000    4.079062000000000    4.034310000000000    0.108373395138213   -0.349951134773666    0.592308147894603
    44    6.772752000000000    4.054849000000000    9.417460000000000   -0.382334437241085   -0.088512736942889    0.808912446644599
    45    6.751213000000000    6.722207000000000    1.378742000000000    0.058499142641745    0.012880820853951   -0.682730634526987
    46    6.756847000000000    6.711462000000000    6.741755000000000    0.033253011821619    0.556548370409237    0.629285859548262
    47    6.764750000000000    9.431454000000000    4.082225000000000   -0.217740353067651    0.068750135935098   -0.009215860527698
    48    6.724634000000000    9.420964000000000    9.439347000000000    0.423311442718460    0.263769222672357    0.555067542316538
    49    8.075087999999999   -0.006308000000000    2.730653000000000    0.227488263471551    0.028273669033773   -0.180747844503002
    50    8.126071000000000   -0.027510000000000    8.112788000000000   -0.350702328560499   -0.004281026692197    0.016820634853416
    51    8.101658000000000    2.739117000000000    0.008193000000000   -0.199785093996220   -0.891612738725757   -0.249614928403170
    52    8.097865000000001    2.681613000000000    5.364541000000000   -0.137449150448944    0.012522832991151    0.159728026761147
    53    8.068654000000000    5.375980000000000    2.706361000000000    0.683359355354122    0.076838651195347   -0.135851072800639
    54    8.099653999999999    5.367870000000000    8.123823000000000    0.475926743400059    0.530545672914181   -0.584251212840100
    55    8.125434000000000    8.072134000000000    0.013288000000000   -0.254332857965582    0.227042982709365   -0.006307574297114
    56    8.106802999999999    8.102931999999999    5.439308000000000    0.052940201877214   -0.462545331210997   -0.376677121603374
    57    9.481420000000000    1.325855000000000    4.044540000000000   -0.204971575694455    0.227812551201679   -0.025588504880674
    58    9.477959999999999    1.335596000000000    9.425286000000000   -0.758198262552712    0.274951490464024    0.386432644327225
    59    9.462891000000001    4.017448000000000    1.330657000000000   -0.198027768986122    0.493629939478254    0.387600566917153
    60    9.445016000000001    4.050510000000000    6.710315000000000   -0.222095936796881   -0.428403922631991    0.521606945857886
    61    9.465237999999999    6.713028000000000    4.050945000000000   -0.452754126701538    0.520608555201256   -0.111207012642993
    62    9.478073999999999    6.762501000000000    9.424396000000000   -0.333865765870152   -0.211487192028058    0.281409705556943
    63    9.456842999999999    9.453419999999999    1.389262000000000   -0.431040311805052    0.323438980158775   -0.618153305498238
    64    9.466124000000001    9.417909000000000    6.767612000000000   -0.277885562094040    0.472860890230036   -0.212255153425912
