ITEM: TIMESTEP
0
ITEM: NUMBER OF ATOMS
64
ITEM: BOX BOUNDS xy xz yz pp pp pp
0.0000000000000000e+00 1.0800000000000001e+01 0.0000000000000000e+00
0.0000000000000000e+00 1.0800000000000001e+01 0.0000000000000000e+00
0.0000000000000000e+00 1.0800000000000001e+01 0.0000000000000000e+00
ITEM: ATOMS id xu yu zu fx fy fz
     1    0.020883000000000   -0.033870000000000    0.004091000000000   -0.360410351160674    0.200446550689066   -0.451321337224602
     2   -0.007252000000000   -0.030310000000000    5.425074000000000    0.405074104862175    0.351190627600173   -0.232044486153787
     3    0.028792000000000    2.697814000000000    2.672319000000000   -0.805394290769412   -0.009573494760811    0.154274874494807
     4   -0.038738000000000    2.694690000000000    8.091564000000000    0.574317848579512    0.227390967228050   -0.221691108967148
     5    0.014044000000000    5.417594000000000   -0.033064000000000   -0.364697758408169    0.137189785468047    0.462557004230250
     6   -0.011456000000000    5.422583000000000    5.369036000000000    0.220638513055334   -0.275371838919188    0.183153403890658
     7    0.032153000000000    8.083296000000001    2.716946000000000   -0.272596855602452   -0.163785148680285   -0.287357537418255
     8    0.023353000000000    8.074710000000000    8.120373000000001   -0.198814138051013    0.039210986843698   -0.283457394324156
     9    1.314474000000000    1.336535000000000    1.337486000000000    0.456137321454864    0.176996689447436   -0.270443149920142
    10    1.389073000000000    1.354126000000000    6.757503000000000   -0.741743279869776    0.330357347435472   -0.431515743238988
    11    1.342591000000000    4.048258000000000    4.010731000000000   -0.184817296255701    0.072929978205591    0.372178585811510
    12    1.312476000000000    4.063270000000000    9.453980000000000    0.251985427698240   -0.254837121146180   -0.426367556751047
    13    1.383931000000000    6.750627000000000    1.328828000000000   -0.416159261838384   -0.443247160087489    0.529458990484140
    14    1.377032000000000    6.734281000000000    6.725056000000000   -0.350152459285926   -0.183776680301573    0.500509202829508
    15    1.342138000000000    9.411902000000000    4.059313000000000    0.133268947761049    0.728685079352266   -0.079282572487742
    16    1.384785000000000    9.440083000000000    9.432921000000000   -0.359865064211045    0.247566300051599   -0.041590973976469
    17    2.675901000000000    0.026645000000000    2.682414000000000    0.036575579935327   -0.223006892732012    0.392578191076034
    18    2.685313000000000    0.030978000000000    8.079393000000000    0.528681834303055   -0.531375029351887    0.256217334933845
    19    2.682714000000000    2.731994000000000   -0.016661000000000   -0.069698914665816   -0.677585870898791   -0.149676644853252
    20    2.700034000000000    2.730645000000000    5.374292000000000   -0.225550172036453   -0.263584665976807    0.082729586575173
    21    2.722055000000000    5.380866000000000    2.727340000000000   -0.325837652123628    0.026608923782009   -0.660148384772707
    22    2.710147000000000    5.409285000000000    8.137561000000000   -0.067391068709047   -0.144426589001418   -0.312608977980156
    23    2.660659000000000    8.093738000000000    0.003618000000000    0.784014927898298    0.493803475238026    0.057359059146527
    24    2.672206000000000    8.114756000000000    5.424693000000000    0.374984160641540   -0.376223768602098   -0.511491945881931
    25    4.036910000000000    1.384811000000000    4.035273000000000    0.067273685250330   -0.339051609523142   -0.097509775359372
    26    4.070903000000000    1.340385000000000    9.417280000000000   -0.334766500380101    0.047983354503725    0.531635295299156
    27    4.017080000000000    4.037792000000000    1.330837000000000    0.450250915280968   -0.128815438227717    0.374602671085579
    28    4.016657000000000    4.028017000000000    6.747762000000000    0.521968704039467    0.491122720477396    0.244939471067113
    29    4.022802000000000    6.727524000000000    4.031156000000000    0.278190624494537    0.643807336926279    0.388727460750107
    30    4.038373000000000    6.781392000000000    9.471895000000000    0.365551068590596   -0.344460380261066   -0.005318009264558
    31    4.033307000000000    9.457838000000001    1.385495000000000    0.224484205456633    0.000181819446481   -0.434894237550837
    32    4.020680000000000    9.430633000000000    6.730889000000000    0.558201587909142    0.397740683136932    0.295729222845716
    33    5.434805000000000    0.010170000000000   -0.016887000000000   -0.662916229572594   -0.286561256489140    0.240015466363009
    34    5.382083000000000    0.004225000000000    5.364488000000000    0.144591780242154   -0.084294500783120    0.203771048262292
    35    5.434028000000000    2.680604000000000    2.691884000000000   -0.726927299565238    0.579990636351627    0.222228764467809
    36    5.394514000000000    2.709580000000000    8.138446999999999    0.267713702660501    0.175270594510100   -0.540887820339951
    37    5.404501000000000    5.372821000000000    0.029001000000000   -0.453775288909129    0.249264905410145   -0.396469500061414
    38    5.403530000000000    5.429558000000000    5.373281000000000   -0.540909481071005   -0.388915047646352    0.365904160145193
    39    5.411726000000000    8.064651000000000    2.685408000000000   -0.322955770105861    0.342294991943572    0.152950111662363
    40    5.422376000000000    8.069734000000000    8.086461999999999   -0.391042084703479    0.296319503246585    0.015856531158304
    41    6.712947000000000    1.356515000000000    1.363588000000000    0.723546173779551   -0.462561097222622   -0.172412377399196
    42    6.761168000000000    1.383071000000000    6.730466000000000   -0.465296401663569   -0.517181967046323    0.368602945289014
    43    6.721775000000000    4.051463000000000    4.078306000000000    0.314824662445841   -0.149661277105683   -0.284951286095008
    44    6.763955000000000    4.063792000000000    9.484857999999999   -0.213941287488739   -0.242468295092018   -0.256486552437878
    45    6.720602000000000    6.725175000000000    1.339071000000000    0.505458754591674    0.032544913959625    0.157834833749275
    46    6.748339000000000    6.747807000000000    6.710095000000000   -0.001453075284250   -0.332425855874097    0.579607630821142
    47    6.772438000000000    9.426522000000000    4.026648000000000   -0.397021230918351   -0.087721222172677    0.404273852039701
    48    6.728147000000000    9.421770000000000    9.468042000000001    0.593712239939367    0.113621413029927   -0.345192412327390
    49    8.084852000000000    0.002018000000000    2.736966000000000    0.415915251235313    0.108417015671175   -0.496044471557151
    50    8.113116000000000   -0.014752000000000    8.065210000000000   -0.259279158463505   -0.053645415885771    0.198641668631043
    51    8.074192999999999    2.669439000000000   -0.000229000000000    0.381274488793700    0.092388266752590    0.071796600818899
    52    8.088569000000000    2.722677000000000    5.430904000000000    0.373093362304800    0.093784414547836   -0.356163870854421
    53    8.071657000000000    5.371791000000000    2.700950000000000    0.316321638616267    0.263315070777551    0.082641143569407
    54    8.090555999999999    5.363026000000000    8.088012000000001   -0.159435976976670    0.684975327374200    0.278346488385903
    55    8.116723000000000    8.065925000000000    0.012618000000000   -0.406270665131811    0.564171698337873    0.329379622698216
    56    8.103142999999999    8.076518999999999    5.432230000000000   -0.050522561641740    0.476219085827628   -0.447654118337479
    57    9.454669000000001    1.343486000000000    4.089189000000000    0.038962557900715    0.256641091593459   -0.229308802217845
    58    9.448869999999999    1.365489000000000    9.413138000000000   -0.195709438888732   -0.666709938924164    0.513057468670268
    59    9.444310000000000    4.066956000000000    1.314221000000000    0.048716055931345   -0.225177168153155    0.222017776357158
    60    9.449607000000000    4.088635000000000    6.760355000000000    0.231878076929518   -0.326976297857316   -0.386616245394726
    61    9.442848000000000    6.780978000000000    4.074274000000000   -0.161592842546177   -0.405693800598963   -0.605336745077048
    62    9.418472000000000    6.762311000000000    9.471318000000000    0.329534737781163   -0.356419678866772   -0.621250587178853
    63    9.484693999999999    9.435748999999999    1.363902000000000   -0.392046347402398    0.084146217998499    0.109063012159542
    64    9.465474000000000    9.423304999999999    6.724546000000000   -0.038152736919242   -0.081043264924576    0.692855145583426
