ITEM: TIMESTEP
0
ITEM: NUMBER OF ATOMS
64
ITEM: BOX BOUNDS xy xz yz pp pp pp
0.0000000000000000e+00 1.0800000000000001e+01 0.0000000000000000e+00
0.0000000000000000e+00 1.0800000000000001e+01 0.0000000000000000e+00
0.0000000000000000e+00 1.0800000000000001e+01 0.0000000000000000e+00
ITEM: ATOMS id xu yu zu fx fy fz
     1    0.031616000000000   -0.009710000000000    0.022498000000000   -0.381075805834008    0.175036634610885   -0.479932415876457
     2    0.015096000000000    0.031734000000000    5.419106000000000   -0.318459931042463   -0.520374437436236   -0.316683399986017
     3   -0.009772000000000    2.676416000000000    2.730794000000000    0.037431969632230    0.183854427770522   -0.713416189921901
     4    0.017110000000000    2.714416000000000    8.133158000000000   -0.496404980850524   -0.220042231388474   -0.199332557731939
     5    0.016334000000000    5.436072000000000    0.005659000000000   -0.135884122032544   -0.928801778544323   -0.228279286595197
     6   -0.030008000000000    5.417868000000000    5.380500000000000    0.449163631161096   -0.456872025875585    0.565800294582955
     7    0.013911000000000    8.096803000000000    2.662633000000000    0.156711508249148   -0.163733890630549    0.466841478721904
     8    0.008558000000000    8.120067000000001    8.133527000000001   -0.181605863662972   -0.688240098451426   -0.690805898984112
     9    1.380238000000000    1.325104000000000    1.341885000000000   -0.389291275694455    0.613867004339816    0.081807778317284
    10    1.313697000000000    1.349330000000000    6.766783000000000    0.407987120587714    0.336603884539032    0.039511530322683
    11    1.330480000000000    4.017965000000000    4.063884000000000    0.169915720237731    0.507402512534982   -0.190474034783339
    12    1.377331000000000    4.041336000000000    9.422109000000001   -0.048248334313636    0.170978821167533    0.689182826448107
    13    1.364439000000000    6.717280000000000    1.332087000000000   -0.108273138679477    0.467757198193411    0.326290275188390
    14    1.386776000000000    6.734543000000000    6.752931000000000   -0.436619239717420    0.168462701723464   -0.088208842440813
    15    1.361421000000000    9.427560000000000    4.081081000000000   -0.465431155091625    0.627777682824710   -0.712164368547386
    16    1.328573000000000    9.416677000000000    9.444481000000000    0.588988564832999    0.410795608633194    0.543372418765094
    17    2.710789000000000    0.037499000000000    2.691203000000000   -0.221535745772635   -0.698312589331390    0.394310382667331
    18    2.662309000000000    0.010352000000000    8.108497000000000    0.290574219126119    0.052711627001710    0.246536852203260
    19    2.732524000000000    2.701221000000000    0.023253000000000   -0.537235252273671   -0.057222199675509   -0.337106137887391
    20    2.684189000000000    2.669327000000000    5.379773000000000    0.145212237282927    0.152588318873718    0.388805212538511
    21    2.711603000000000    5.416999000000000    2.665701000000000   -0.339304472129818   -0.366585069710401    0.816763521861685
    22    2.735294000000000    5.381178000000000    8.100250000000001   -0.500440359968959    0.335889171894136    0.001018282416498
    23    2.700164000000000    8.065564999999999    0.020352000000000    0.014934913059290    0.658312940306289   -0.072618133489035
    24    2.680696000000000    8.132030000000000    5.385807000000000    0.740243089407587   -0.728871943511091    0.393678020745117
    25    4.045315000000000    1.311485000000000    4.059727000000000    0.357994099784325    0.519794239980871    0.022138120589714
    26    4.071336000000000    1.375062000000000    9.472731000000000   -0.383779523384336   -0.543971907267515   -0.103410461652291
    27    4.012680000000000    4.064300000000000    1.348355000000000    0.497987304108595   -0.077558955066519    0.072911726038942
    28    4.029605000000000    4.043602000000000    6.783810000000000    0.232208225131965   -0.262001933656041   -0.921844066738241
    29    4.074433000000000    6.724128000000000    4.031733000000000   -0.212159941782363    0.297695068220548    0.348390304867759
    30    4.011112000000000    6.747667000000000    9.459069000000000    0.654826966378101    0.160300330000684   -0.127378408382709
    31    4.057494000000000    9.483739000000000    1.370138000000000   -0.429894740956173   -0.573936868410736   -0.140455360015370
    32    4.033113000000000    9.484734000000000    6.760411000000000    0.181430778504321   -0.317694234530395   -0.030640880606341
    33    5.380564000000000   -0.034184000000000    0.007329000000000    0.218829198053527    0.544147385239483   -0.136865460765439
    34    5.422982000000000   -0.026273000000000    5.380467000000000   -0.154951837620588    0.117297795487075    0.223057419662525
    35    5.371131000000000    2.702881000000000    2.672463000000000    0.068014816300538    0.176600221563365    0.596725684541898
    36    5.360462000000000    2.694166000000000    8.098352000000000    0.547783254240383   -0.054758990627071   -0.086463130337550
    37    5.363836000000000    5.384515000000000   -0.007238000000000    0.351473292288277    0.395169311021207    0.229766183985307
    38    5.418325000000000    5.406734000000000    5.434912000000000   -0.182512972403303   -0.169570528041171   -0.155391229062665
    39    5.383180000000000    8.088347000000001    2.665630000000000    0.233468911314184    0.307574152098285    0.587170656223569
    40    5.429842000000000    8.117016000000000    8.120492000000000   -0.813213342162413   -0.154084349443401   -0.202471030354787
    41    6.713381000000000    1.345314000000000    1.365397000000000    0.237572952390269   -0.134558260670072   -0.133073743762598
    42    6.739498000000000    1.317132000000000    6.770234000000000   -0.204172308170575    0.486759705999601   -0.360026750316698
    43    6.773119000000000    4.081147000000000    4.040233000000000   -0.662812985542071   -0.723829091464319    0.484828996307820
    44    6.710260000000000    4.051609000000000    9.445738000000000    0.332362507617723   -0.039762305449771    0.057188303059046
    45    6.761037000000000    6.773481000000000    1.380444000000000    0.015802746227254   -0.465026151552623   -0.574494535587570
    46    6.751518000000000    6.751833000000000    6.789929000000000    0.114881655233854    0.220496980910766   -0.296177733943356
    47    6.783566000000000    9.464853000000000    4.034102000000000   -0.534638582394158   -0.790691577122793    0.266286006129825
    48    6.731861000000000    9.480719000000001    9.431907000000001    0.096461056107214   -0.347922875276077    0.454894883376949
    49    8.071225000000000   -0.027630000000000    2.702930000000000    0.658399454623869    0.391517509092589   -0.513126432938363
    50    8.061502000000001   -0.006411000000000    8.108762000000000    0.571650423503486    0.119078472654908   -0.170036190050062
    51    8.080484000000000    2.704875000000000    0.034574000000000   -0.161661626477015   -0.133538120013646   -0.470673736229010
    52    8.089451000000000    2.714955000000000    5.435568000000000   -0.092374055076363   -0.524019269512448   -0.481681594188283
    53    8.096546999999999    5.366158000000000    2.721042000000000    0.248896317089966    0.754308591155089   -0.380542503212942
    54    8.101861000000000    5.430349000000000    8.125990000000000   -0.015493206042913   -0.673489001969600   -0.136480180424706
    55    8.081500000000000    8.112280999999999   -0.033270000000000    0.299080848603309   -0.126446032628998    0.239332877506732
    56    8.096328000000000    8.123336000000000    5.432279000000000    0.325841868323319   -0.284686141991532   -0.268530294490907
    57    9.457523999999999    1.319573000000000    4.025149000000000   -0.475806390932929    0.162878288257208    0.467884358019155
    58    9.412375000000001    1.346915000000000    9.436776000000000    0.339728892648565    0.062570624949782    0.477833547066814
    59    9.416468999999999    4.066029000000000    1.335210000000000    0.641687170374089   -0.203552610171215    0.186371735424736
    60    9.432269000000000    4.017405000000000    6.764938000000000    0.252115700359972    0.609887264124328    0.137581243401104
    61    9.478794000000001    6.730230000000000    4.030505000000000   -0.537006980171410    0.610012183026978    0.020720864850840
    62    9.476414999999999    6.720062000000000    9.447550000000000   -0.277200192434186    0.617777961395797    0.114730024768578
    63    9.487015000000000    9.438185000000001    1.340498000000000   -0.604983293105049    0.085728272473324   -0.079884168370100
    64    9.472277000000000    9.469744000000000    6.776720000000000   -0.177189757063894   -0.071477422490099   -0.143062653029403
