ITEM: TIMESTEP
0
ITEM: NUMBER OF ATOMS
64
ITEM: BOX BOUNDS xy xz yz pp pp pp
0.0000000000000000e+00 1.0800000000000001e+01 0.0000000000000000e+00
0.0000000000000000e+00 1.0800000000000001e+01 0.0000000000000000e+00
0.0000000000000000e+00 1.0800000000000001e+01 0.0000000000000000e+00
ITEM: ATOMS id xu yu zu fx fy fz
     1   -0.016704000000000    0.025751000000000   -0.025648000000000    0.359530671835293   -0.594112569416422    0.255215626318525
     2    0.011181000000000   -0.009514000000000    5.362792000000000   -0.302495837581104    0.470426874374104    0.635900613910227
     3   -0.037643000000000    2.713363000000000    2.697891000000000    0.696582989670348   -0.366286543468434    0.098944118811753
     4    0.030829000000000    2.676211000000000    8.090854000000000   -0.263343991844376    0.528096795612541    0.381214961301174
     5    0.033986000000000    5.415706000000000    0.014082000000000   -0.644502893815627   -0.380242402066742   -0.623738361174928
     6   -0.007506000000000    5.416326000000000    5.364263000000000    0.045294707378463   -0.052611096103299    0.266393990608207
     7    0.017873000000000    8.103431000000000    2.735620000000000   -0.334315063160068   -0.345489179059833   -0.512526744506870
     8    0.011015000000000    8.137549000000000    8.091711000000000   -0.249029693485975   -0.470940587905702   -0.215984591803194
     9    1.336382000000000    1.350389000000000    1.312392000000000    0.110205309169882    0.210581292529507    0.336938006434611
    10    1.374259000000000    1.378295000000000    6.764522000000000   -0.074557976206122   -0.840573346859775   -0.232962225381996
    11    1.351898000000000    4.015136000000000    4.069516000000000   -0.268214913837439    0.633678203538513   -0.666339279322353
    12    1.381425000000000    4.060562000000000    9.472381000000000   -0.216236457284197    0.065993460886508   -0.434567326677249
    13    1.318119000000000    6.728435000000000    1.339112000000000    0.478295063992759    0.612174172293153    0.537603917109914
    14    1.364251000000000    6.714613000000000    6.762029000000000   -0.434518448338819    0.745444996240439   -0.497750753256145
    15    1.311041000000000    9.442239000000001    4.045317000000000    1.081476111707254    0.116388681593916    0.076823480857168
    16    1.357665000000000    9.468378000000000    9.415309000000001   -0.041150203136931   -0.001194149447969    0.460802951156075
    17    2.710486000000000    0.000583000000000    2.661403000000000   -0.291508049610649   -0.233842191642618    0.097273840440671
    18    2.735698000000000   -0.016899000000000    8.106329000000001   -0.000714853592834    0.314369524223999   -0.276141456313905
    19    2.721326000000000    2.733419000000000    0.005328000000000   -0.269875006007468   -0.806200813795387   -0.391048714810162
    20    2.661838000000000    2.708580000000000    5.391630000000000    0.723749706561880   -0.310284086733101    0.198112096785174
    21    2.705365000000000    5.394765000000000    2.660709000000000   -0.253585114446466   -0.099094594285551    0.486504545545581
    22    2.701383000000000    5.433326000000000    8.077921000000000    0.245444114308350   -0.653925229394582    0.496289008568118
    23    2.660832000000000    8.096304000000000    0.007224000000000    0.431681031307512   -0.008136621444633   -0.210501401170941
    24    2.735986000000000    8.082587000000000    5.398650000000000   -0.627542409811103   -0.081322303070052   -0.246665883227299
    25    4.027572000000000    1.317155000000000    4.054265000000000   -0.015297083800269    0.367457259717461   -0.026383715973286
    26    4.088409000000000    1.354854000000000    9.439942000000000   -0.456956030538247   -0.335914919704022    0.576141043122291
    27    4.017808000000000    4.031807000000000    1.334746000000000    0.997607477689056    0.360976614670500    0.400539724328113
    28    4.030049000000000    4.023337000000000    6.772160000000000    0.152967455355016    0.327698040107082   -0.403084899924827
    29    4.051582000000000    6.710352000000000    4.055055000000000    0.126462073028875    0.261600271986998   -0.327135511434798
    30    4.079710000000000    6.724529000000000    9.441720000000000   -0.568596508587838    0.333534849267472    0.364889193990456
    31    4.083195000000000    9.436030000000001    1.332595000000000   -0.282169231727200   -0.141242675915134    0.146314922677567
    32    4.049136000000000    9.434860000000000    6.712986000000000    0.166010217059634    0.289681358623119    0.294372360907253
    33    5.428966000000000    0.007185000000000    0.026634000000000   -0.326560951228476   -0.479109626296268   -0.792392386843330
    34    5.403185000000000    0.036502000000000    5.416045000000000   -0.007513096407931   -0.552255478533451   -0.291900821172320
    35    5.398548000000000    2.696835000000000    2.739848000000000   -0.046218664925288    0.015689400585010   -0.302955993261584
    36    5.374126000000000    2.701494000000000    8.130468000000000    0.504181219345850    0.181046824133503   -0.542689945094290
    37    5.428384000000000    5.426998000000000    0.008089000000000   -0.245786353128812   -0.533986254715695   -0.019459997765722
    38    5.426027000000000    5.425417000000000    5.416630000000000   -0.314412699750227   -0.415405244259110    0.219546364508953
    39    5.438476000000000    8.092186000000000    2.707652000000000   -0.508801729714553   -0.403897821966630   -0.277226748033625
    40    5.360757000000000    8.096018000000001    8.106643999999999    0.310490839515045    0.193121348064391   -0.183230552292303
    41    6.736529000000000    1.314968000000000    1.336169000000000    0.375866004991016    0.632085166745895    0.691749217666297
    42    6.740155000000000    1.379796000000000    6.725195000000000    0.077273283214814    0.016827421900306    0.516584770580550
    43    6.764181000000000    4.084720000000000    4.063907000000000   -0.244060352242471   -0.071473534363318   -0.319352309000606
    44    6.751552000000000    4.073188000000000    9.417444000000000   -0.123311238227975   -0.559151096113575    0.796062204448422
    45    6.782536000000000    6.744460000000000    1.327401000000000    0.108623392197714    0.151723615716719    0.336427584019374
    46    6.740928000000000    6.755895000000000    6.788509000000000    0.292431683609708    0.194531337913908   -0.228442004073632
    47    6.738352000000000    9.411743000000000    4.049153000000000    0.012214935433932    0.923599755600400    0.006881250352087
    48    6.755477000000000    9.437568000000001    9.412378000000000   -0.065279480852074    0.069759149314871    0.448382328045870
    49    8.104875000000000   -0.032101000000000    2.676639000000000    0.047476563619059    0.145203441637929    0.299621657460562
    50    8.088558000000001    0.033172000000000    8.119201000000000    0.045641532586214    0.102718662277625   -0.215832928376361
    51    8.107347000000001    2.698187000000000    0.039278000000000   -0.167684247803190    0.249457451143850   -0.300756706167899
    52    8.069375000000001    2.714897000000000    5.379020000000000    0.501505625922855    0.218666235703117    0.446101070752941
    53    8.133944000000000    5.383691000000000    2.686516000000000   -0.295122280351946    0.245649110717518    0.052008565521680
    54    8.097049000000000    5.395115000000000    8.139590999999999    0.110935410285447    0.015709666029178   -0.845616141210967
    55    8.138391000000000    8.094842999999999   -0.009977000000000   -0.254777324921832    0.069169283221750   -0.208502037749044
    56    8.086460000000001    8.126709999999999    5.373481000000000    0.064023600835140   -0.330885999494484    0.758962113371840
    57    9.439845999999999    1.387980000000000    4.057376000000000   -0.167662870253564   -0.585209349207797   -0.174076752463362
    58    9.465270000000000    1.365514000000000    9.483558000000000   -0.390590689238180    0.267473982664880   -0.497552699342834
    59    9.486969999999999    4.058797000000000    1.362483000000000   -0.295121229747303    0.062824064769376   -0.418530530922084
    60    9.475546000000000    4.076959000000000    6.764854000000000   -0.218735924559828   -0.308506966328126   -0.164121883074952
    61    9.418371000000000    6.774074000000000    4.045521000000000    0.245518942802576   -0.140007941277107   -0.007455158783467
    62    9.435567000000001    6.728193000000000    9.419733000000001    0.686740780159241    0.417911810559428    0.383168250585267
    63    9.479346000000000    9.423525000000000    1.343843000000000    0.040372242868684    0.235005718004131    0.020209053422211
    64    9.420565000000000    9.475263000000000    6.759766000000000    0.227645913663347    0.055026780448303   -0.231052373002595
