# Structure data of Os (2x2x2 conventional) 

16 atoms
1 atom types

0.0 5.5170311928 xlo xhi
0.0 4.7778887991 ylo yhi
0.0 8.7135982513 zlo zhi
-2.7585162326 0.0 0.0 xy xz yz

Masses

1 190.23  # Os

Atoms  # atomic

1 1 1.3792577308 0.7963148253 1.0891997814
2 1 1.3792577308 0.7963148253 5.4459989071
3 1 -4.2689186164e-07 3.1852592966 1.0891997814
4 1 -4.2689186164e-07 3.1852592966 5.4459989071
5 1 4.1377734927 0.7963148253 1.0891997814
6 1 4.1377734927 0.7963148253 5.4459989071
7 1 2.758515335 3.1852592966 1.0891997814
8 1 2.758515335 3.1852592966 5.4459989071
9 1 -2.0930815725e-07 1.5926296459 3.2675993442
10 1 -2.0930815725e-07 1.5926296459 7.6243984699
11 1 -1.3792584084 3.9815741888 3.2675993442
12 1 -1.3792584084 3.9815741888 7.6243984699
13 1 2.7585154698 1.5926296459 3.2675993442
14 1 2.7585154698 1.5926296459 7.6243984699
15 1 1.3792572708 3.9815741888 3.2675993442
16 1 1.3792572708 3.9815741888 7.6243984699
