# Structure data of FeS2 Pnnm (2x2x2 conventional) 

48 atoms
2 atom types

0.0 6.7806181908 xlo xhi
0.0 8.8766317368 ylo yhi
0.0 10.8220443726 zlo zhi
0.000000    0.000000    0.000000   xy xz yz

Masses

1 55.845  # Fe
2 32.065  # S

Atoms  # atomic

1 1 1.6951545477 2.2191579342 2.7055110932
2 1 1.6951545477 2.2191579342 8.1165332794
3 1 1.6951545477 6.6574738026 2.7055110932
4 1 1.6951545477 6.6574738026 8.1165332794
5 1 5.0854636431 2.2191579342 2.7055110932
6 1 5.0854636431 2.2191579342 8.1165332794
7 1 5.0854636431 6.6574738026 2.7055110932
8 1 5.0854636431 6.6574738026 8.1165332794
9 1 0.0 0.0 0.0
10 1 0.0 0.0 5.4110221863
11 1 0.0 4.4383158684 0.0
12 1 0.0 4.4383158684 5.4110221863
13 1 3.3903090954 0.0 0.0
14 1 3.3903090954 0.0 5.4110221863
15 1 3.3903090954 4.4383158684 0.0
16 1 3.3903090954 4.4383158684 5.4110221863
17 2 1.6951545477 1.3048603649 4.7364298988
18 2 1.6951545477 1.3048603649 10.1474520851
19 2 1.6951545477 5.7431761001 4.7364298988
20 2 1.6951545477 5.7431761001 10.1474520851
21 2 5.0854636431 1.3048603649 4.7364298988
22 2 5.0854636431 1.3048603649 10.1474520851
23 2 5.0854636431 5.7431761001 4.7364298988
24 2 5.0854636431 5.7431761001 10.1474520851
25 2 1.6951545477 3.1334553704 0.6745921251
26 2 1.6951545477 3.1334553704 6.0856144738
27 2 1.6951545477 7.5717715051 0.6745921251
28 2 1.6951545477 7.5717715051 6.0856144738
29 2 5.0854636431 3.1334553704 0.6745921251
30 2 5.0854636431 3.1334553704 6.0856144738
31 2 5.0854636431 7.5717715051 0.6745921251
32 2 5.0854636431 7.5717715051 6.0856144738
33 2 0.0 0.9142974983 2.030918968
34 2 0.0 0.9142974983 7.441940992
35 2 0.0 5.3526135709 2.030918968
36 2 0.0 5.3526135709 7.441940992
37 2 3.3903090954 0.9142974983 2.030918968
38 2 3.3903090954 0.9142974983 7.441940992
39 2 3.3903090954 5.3526135709 2.030918968
40 2 3.3903090954 5.3526135709 7.441940992
41 2 0.0 3.5240184322 3.3801033806
42 2 0.0 3.5240184322 8.7911255669
43 2 0.0 7.9623340343 3.3801033806
44 2 0.0 7.9623340343 8.7911255669
45 2 3.3903090954 3.5240184322 3.3801033806
46 2 3.3903090954 3.5240184322 8.7911255669
47 2 3.3903090954 7.9623340343 3.3801033806
48 2 3.3903090954 7.9623340343 8.7911255669
