# Structure data of Ru (2x2x2 conventional) 

16 atoms
1 atom types

0.0 5.4658603668 xlo xhi
0.0 4.7335739312 ylo yhi
0.0 8.6278457642 zlo zhi
-2.7329301834 0.0 0.0 xy xz yz

Masses

1 101.07  # Ru

Atoms  # atomic

1 1 1.36646513 0.7889290138 1.0784807205
2 1 1.36646513 0.7889290138 5.3924036026
3 1 -2.7329301044e-09 3.1557160504 1.0784807205
4 1 -2.7329301044e-09 3.1557160504 5.3924036026
5 1 4.0993954773 0.7889290138 1.0784807205
6 1 4.0993954773 0.7889290138 5.3924036026
7 1 2.7329303446 3.1557160504 1.0784807205
8 1 2.7329303446 3.1557160504 5.3924036026
9 1 2.7329301044e-09 1.5778580228 3.2354421616
10 1 2.7329301044e-09 1.5778580228 7.5493650437
11 1 -1.366465171 3.9446451304 3.2354421616
12 1 -1.366465171 3.9446451304 7.5493650437
13 1 2.7329302681 1.5778580228 3.2354421616
14 1 2.7329302681 1.5778580228 7.5493650437
15 1 1.3664650944 3.9446451304 3.2354421616
16 1 1.3664650944 3.9446451304 7.5493650437
