# LAMMPS data file written by OVITO Basic 3.8.4

32 atoms
1 atom types

0.0 4.9345827103 xlo xhi
0.0 4.2734736556 ylo yhi
0.0 15.6061458588 zlo zhi
-2.4672919242 0.0 0.0 xy xz yz

Masses

1 12.0107  # C

Atoms  # atomic

1 1 0.0 0.0 1.950768232
2 1 0.0 0.0 9.753841162
3 1 -1.233645962 2.136736828 1.950768232
4 1 -1.233645962 2.136736828 9.753841162
5 1 2.467291355 0.0 1.950768232
6 1 2.467291355 0.0 9.753841162
7 1 1.233645393 2.136736828 1.950768232
8 1 1.233645393 2.136736828 9.753841162
9 1 0.0 0.0 5.852304697
10 1 0.0 0.0 13.655377626
11 1 -1.233645962 2.136736828 5.852304697
12 1 -1.233645962 2.136736828 13.655377626
13 1 2.467291355 0.0 5.852304697
14 1 2.467291355 0.0 13.655377626
15 1 1.233645393 2.136736828 5.852304697
16 1 1.233645393 2.136736828 13.655377626
17 1 -1.9e-07 1.424491261 1.950768232
18 1 -1.9e-07 1.424491261 9.753841162
19 1 -1.233646225 3.561228216 1.950768232
20 1 -1.233646225 3.561228216 9.753841162
21 1 2.467291239 1.424491261 1.950768232
22 1 2.467291239 1.424491261 9.753841162
23 1 1.233645203 3.561228216 1.950768232
24 1 1.233645203 3.561228216 9.753841162
25 1 1.233645619 0.71224563 5.852304697
26 1 1.233645619 0.71224563 13.655377626
27 1 -3.79e-07 2.848982522 5.852304697
28 1 -3.79e-07 2.848982522 13.655377626
29 1 3.700937122 0.71224563 5.852304697
30 1 3.700937122 0.71224563 13.655377626
31 1 2.467291123 2.848982522 5.852304697
32 1 2.467291123 2.848982522 13.655377626
