ITEM: TIMESTEP
0
ITEM: NUMBER OF ATOMS
64
ITEM: BOX BOUNDS xy xz yz pp pp pp
0.0000000000000000e+00 1.0800000000000001e+01 0.0000000000000000e+00
0.0000000000000000e+00 1.0800000000000001e+01 0.0000000000000000e+00
0.0000000000000000e+00 1.0800000000000001e+01 0.0000000000000000e+00
ITEM: ATOMS id xu yu zu fx fy fz
     1   -0.040000000000000    0.000000000000000    0.000000000000000    0.541458622877325    0.000429322072003    0.010814077324168
     2    0.000000000000000    0.000000000000000    5.400000000000000   -0.012364429157260    0.000469507249652    0.012387559891492
     3    0.000000000000000    2.700000000000000    2.700000000000000    0.016357611208923   -0.000912387063212   -0.016355955366325
     4    0.000000000000000    2.700000000000000    8.100000000000000    0.016456276205514    0.000173337116253    0.001785784306589
     5    0.000000000000000    5.400000000000000    0.000000000000000    0.001458205562945    0.000217916208323    0.002680986777083
     6    0.000000000000000    5.400000000000000    5.400000000000000    0.009631752642029    0.000229000753223    0.002665880510823
     7    0.000000000000000    8.100000000000000    2.700000000000000    0.015800610359482   -0.000951040068381   -0.015799883971092
     8    0.000000000000000    8.100000000000000    8.100000000000000    0.015684294166163    0.000273354256601    0.002733341557072
     9    1.350000000000000    1.350000000000000    1.350000000000000   -0.027976545894851   -0.163262853213878    0.027975541570085
    10    1.350000000000000    1.350000000000000    6.750000000000000    0.002656852900794   -0.001762547231483    0.001729382762683
    11    1.350000000000000    4.050000000000000    4.050000000000000   -0.002275352494772    0.000459078593462   -0.001733216330630
    12    1.350000000000000    4.050000000000000    9.449999999999999    0.001808297358722    0.002042389052744    0.002318212289391
    13    1.350000000000000    6.750000000000000    1.350000000000000    0.004019691268379   -0.000349338616480   -0.004020428609673
    14    1.350000000000000    6.750000000000000    6.750000000000000   -0.000080241028752    0.001065488251575    0.000166319389885
    15    1.350000000000000    9.449999999999999    4.050000000000000   -0.098266280122110   -0.099126136593220    0.123993242826508
    16    1.350000000000000    9.449999999999999    9.449999999999999   -0.109912751952258    0.081576247803109    0.083615417524725
    17    2.700000000000000    0.000000000000000    2.740000000000000   -0.010816050235349    0.000429449084556   -0.541455847935866
    18    2.700000000000000    0.000000000000000    8.100000000000000   -0.011785420117729   -0.000493271349720    0.020143456426586
    19    2.700000000000000    2.700000000000000    0.000000000000000   -0.012337418780891   -0.029797032961948    0.012335440316125
    20    2.700000000000000    2.700000000000000    5.400000000000000   -0.003111874703032    0.017583020245931    0.012679164206437
    21    2.700000000000000    5.400000000000000    2.700000000000000   -0.002683033119003    0.000217843960292   -0.001457340592033
    22    2.700000000000000    5.400000000000000    8.100000000000000   -0.002664740894549   -0.000244030451996   -0.003904444294499
    23    2.700000000000000    8.100000000000000    0.000000000000000   -0.011236547917407    0.029511043887394    0.011234297738337
    24    2.700000000000000    8.100000000000000    5.400000000000000   -0.002196226399693   -0.017578878762531    0.012146276047386
    25    4.050000000000000    1.350000000000000    4.050000000000000    0.099708812541717    0.101224648173630    0.125558593813654
    26    4.050000000000000    1.350000000000000    9.449999999999999   -0.001550571971043    0.000432298279507    0.001548664108801
    27    4.050000000000000    4.050000000000000    1.350000000000000   -0.002320224384201    0.002042293099131   -0.001809009708882
    28    4.050000000000000    4.050000000000000    6.750000000000000   -0.002993022372423   -0.002073613674764    0.001197286195227
    29    4.050000000000000    6.750000000000000    4.050000000000000   -0.000777434580260    0.000557405438415   -0.002812176705988
    30    4.050000000000000    6.750000000000000    9.449999999999999   -0.000147329881942   -0.003798242208468    0.000145188152052
    31    4.050000000000000    9.449999999999999    1.350000000000000   -0.083617969859973    0.081576641439179    0.109911639229735
    32    4.050000000000000    9.449999999999999    6.750000000000000   -0.000980797412594   -0.000409959085448   -0.000016675205532
    33    5.400000000000000    0.000000000000000    0.000000000000000   -0.020144612292239   -0.000492978038140    0.011783422935323
    34    5.400000000000000    0.000000000000000    5.400000000000000    0.017729452041138   -0.000407546206898    0.012370543706107
    35    5.400000000000000    2.700000000000000    2.700000000000000   -0.001787200419421    0.000173162795381   -0.016455549405748
    36    5.400000000000000    2.700000000000000    8.100000000000000   -0.002026667264112    0.000452026157186    0.002025702945729
    37    5.400000000000000    5.400000000000000    0.000000000000000    0.003903413950158   -0.000244046804220    0.002662726691433
    38    5.400000000000000    5.400000000000000    5.400000000000000   -0.006058147611393   -0.000213102226881    0.002681486085540
    39    5.400000000000000    8.100000000000000    2.700000000000000   -0.002734079875386    0.000273313221776   -0.015682610812750
    40    5.400000000000000    8.100000000000000    8.100000000000000   -0.002496206138347    0.000511043079818    0.002495249996076
    41    6.750000000000000    1.350000000000000    1.350000000000000   -0.001728633491465   -0.001762594231270   -0.002657524473239
    42    6.750000000000000    1.350000000000000    6.750000000000000   -0.002714673334324   -0.001487417215980    0.002715478655616
    43    6.750000000000000    4.050000000000000    4.050000000000000   -0.002844957000382   -0.000371812227873    0.001171695376969
    44    6.750000000000000    4.050000000000000    9.449999999999999   -0.001196609686261   -0.002073598248138    0.002990950370882
    45    6.750000000000000    6.750000000000000    1.350000000000000   -0.000165739245908    0.001065492005387    0.000079526827397
    46    6.750000000000000    6.750000000000000    6.750000000000000   -0.001928547701589   -0.000494763927194    0.001929276352550
    47    6.750000000000000    9.449999999999999    4.050000000000000   -0.001191335374303   -0.000676377479641   -0.004334554769927
    48    6.750000000000000    9.449999999999999    9.449999999999999    0.000017434401212   -0.000409820554348    0.000978888316222
    49    8.100000000000000    0.000000000000000    2.700000000000000   -0.012385651926406    0.000469306292139    0.012365418826731
    50    8.100000000000000    0.000000000000000    8.100000000000000   -0.012368635381066   -0.000407394820276   -0.017730331718766
    51    8.100000000000000    2.700000000000000    0.000000000000000   -0.012677470568606    0.017583054904417    0.003109656714189
    52    8.100000000000000    2.700000000000000    5.400000000000000   -0.002902720355397   -0.003939291448225    0.002904660819241
    53    8.100000000000000    5.400000000000000    2.700000000000000   -0.002664025253375    0.000229090587607   -0.009630675349323
    54    8.100000000000000    5.400000000000000    8.100000000000000   -0.002679592518638   -0.000213148095381    0.006057253689847
    55    8.100000000000000    8.100000000000000    0.000000000000000   -0.012144264261108   -0.017578926585072    0.002194625373039
    56    8.100000000000000    8.100000000000000    5.400000000000000   -0.002441251097725    0.003970407518221    0.002443175363613
    57    9.449999999999999    1.350000000000000    4.050000000000000    0.002768430857403    0.002903635411421   -0.002766481240427
    58    9.449999999999999    1.350000000000000    9.449999999999999   -0.125556978131706    0.101224800948648   -0.099710816871793
    59    9.449999999999999    4.050000000000000    1.350000000000000    0.001735206211100    0.000458995443949    0.002274413990277
    60    9.449999999999999    4.050000000000000    6.750000000000000   -0.001169765403231   -0.000371723473352    0.002845663334158
    61    9.449999999999999    6.750000000000000    4.050000000000000   -0.000252335581715    0.001324431057144    0.000254347779369
    62    9.449999999999999    6.750000000000000    9.449999999999999    0.002814220888181    0.000557550345854    0.000775375074286
    63    9.449999999999999    9.449999999999999    1.350000000000000   -0.123991513861704   -0.099126459626765    0.098266110223538
    64    9.449999999999999    9.449999999999999    6.750000000000000    0.004336691666140   -0.000676262242746    0.001192121000935
