ITEM: TIMESTEP
0
ITEM: NUMBER OF ATOMS
64
ITEM: BOX BOUNDS xy xz yz pp pp pp
0.0000000000000000e+00 1.0800000000000001e+01 0.0000000000000000e+00
0.0000000000000000e+00 1.0800000000000001e+01 0.0000000000000000e+00
0.0000000000000000e+00 1.0800000000000001e+01 0.0000000000000000e+00
ITEM: ATOMS id xu yu zu fx fy fz
     1    0.040000000000000    0.000000000000000    0.000000000000000   -0.511814597207010    0.000592844820308    0.012826906853464
     2    0.000000000000000    0.000000000000000    5.400000000000000   -0.019040693333174    0.000422098605867    0.012412723649324
     3    0.000000000000000    2.700000000000000    2.700000000000000   -0.015760231166301   -0.000000358309097   -0.015496078532070
     4    0.000000000000000    2.700000000000000    8.100000000000000   -0.015633609009890   -0.000651139828272    0.002714836959402
     5    0.000000000000000    5.400000000000000    0.000000000000000   -0.005213763531797    0.000280948990198    0.002670616125007
     6    0.000000000000000    5.400000000000000    5.400000000000000   -0.005692425763986    0.000223888009459    0.002680524595372
     7    0.000000000000000    8.100000000000000    2.700000000000000   -0.016426782913713   -0.000011460851726   -0.016715442697158
     8    0.000000000000000    8.100000000000000    8.100000000000000   -0.016485217018420   -0.000753184181523    0.001775729540388
     9    1.350000000000000    1.350000000000000    1.350000000000000    0.205615736105813    0.018692485745479    0.210360320512290
    10    1.350000000000000    1.350000000000000    6.750000000000000   -0.002304644674794    0.001261282986952    0.002180580047261
    11    1.350000000000000    4.050000000000000    4.050000000000000   -0.000536444304843   -0.000911690036833   -0.003213101599380
    12    1.350000000000000    4.050000000000000    9.449999999999999   -0.003148184352312    0.001653002247051   -0.000621844820036
    13    1.350000000000000    6.750000000000000    1.350000000000000   -0.000974549063479    0.000123303374968   -0.001015377480005
    14    1.350000000000000    6.750000000000000    6.750000000000000    0.001656062375401    0.002436402457796    0.001571639034112
    15    1.350000000000000    9.449999999999999    4.050000000000000   -0.103244669955855   -0.102237664454281    0.123553234833618
    16    1.350000000000000    9.449999999999999    9.449999999999999    0.123583889801768   -0.100994508215510   -0.098967987452922
    17    2.700000000000000    0.000000000000000    2.740000000000000    0.011417227799036   -0.000375081335580   -0.512698597016073
    18    2.700000000000000    0.000000000000000    8.100000000000000    0.012384331098700    0.000437804145120   -0.010270613698872
    19    2.700000000000000    2.700000000000000    0.000000000000000    0.011926998902129    0.001073075117593    0.011313137103864
    20    2.700000000000000    2.700000000000000    5.400000000000000    0.002218128557441    0.013731772768083    0.012141681329718
    21    2.700000000000000    5.400000000000000    2.700000000000000    0.002677108574765   -0.000196962171000   -0.005311631794585
    22    2.700000000000000    5.400000000000000    8.100000000000000    0.002659571277958    0.000219941672876   -0.000058937629775
    23    2.700000000000000    8.100000000000000    0.000000000000000    0.012838526239482   -0.000769619451601    0.012311612966892
    24    2.700000000000000    8.100000000000000    5.400000000000000    0.003082483432651   -0.013735874347944    0.012632920478592
    25    4.050000000000000    1.350000000000000    4.050000000000000    0.101870320342899    0.100133926898674    0.122189013417602
    26    4.050000000000000    1.350000000000000    9.449999999999999    0.002095016678322    0.000045424316901    0.002046004899578
    27    4.050000000000000    4.050000000000000    1.350000000000000   -0.000662812333304   -0.001605228146500   -0.003229578212815
    28    4.050000000000000    4.050000000000000    6.750000000000000    0.001471219001719   -0.001534070829273    0.000643231677059
    29    4.050000000000000    6.750000000000000    4.050000000000000    0.003641774056168   -0.000001935013103   -0.002239765531492
    30    4.050000000000000    6.750000000000000    9.449999999999999    0.001544555638381   -0.000102257189266    0.001551997082740
    31    4.050000000000000    9.449999999999999    1.350000000000000   -0.079819168436318    0.081926519781876    0.109509031908528
    32    4.050000000000000    9.449999999999999    6.750000000000000    0.000690989168276    0.000916396031895    0.003718891604560
    33    5.400000000000000    0.000000000000000    0.000000000000000   -0.009483852849106   -0.000515887965934    0.011817446410073
    34    5.400000000000000    0.000000000000000    5.400000000000000    0.013680947280937   -0.000483516682814    0.012429257701229
    35    5.400000000000000    2.700000000000000    2.700000000000000    0.002745039927414    0.000768363107191   -0.016082927639972
    36    5.400000000000000    2.700000000000000    8.100000000000000    0.002486615147941    0.000000306012835    0.002506892624877
    37    5.400000000000000    5.400000000000000    0.000000000000000   -0.000149718437845   -0.000255749802549    0.002686590550348
    38    5.400000000000000    5.400000000000000    5.400000000000000    0.002119212363959   -0.000245561184658    0.002660396859552
    39    5.400000000000000    8.100000000000000    2.700000000000000    0.001800017888624    0.000669259634471   -0.016201308841428
    40    5.400000000000000    8.100000000000000    8.100000000000000    0.002011133320361   -0.000010803677464    0.002024658768847
    41    6.750000000000000    1.350000000000000    1.350000000000000    0.001974775077210   -0.001315700409662   -0.002258418893257
    42    6.750000000000000    1.350000000000000    6.750000000000000   -0.001001199896621   -0.000094624917545   -0.000980911363937
    43    6.750000000000000    4.050000000000000    4.050000000000000    0.001582343775483   -0.000940678672280    0.000616237190114
    44    6.750000000000000    4.050000000000000    9.449999999999999    0.000531685087922    0.001624768179297    0.001585419433302
    45    6.750000000000000    6.750000000000000    1.350000000000000    0.001547555294357   -0.002667560521801    0.001425473193936
    46    6.750000000000000    6.750000000000000    6.750000000000000    0.002504098760090   -0.000037481970001    0.002475385284227
    47    6.750000000000000    9.449999999999999    4.050000000000000    0.000522600656488   -0.002128604916534   -0.000612081617063
    48    6.750000000000000    9.449999999999999    9.449999999999999    0.003691472988249   -0.000897252617648    0.000595944697930
    49    8.100000000000000    0.000000000000000    2.700000000000000    0.011790231836600   -0.000528261868223   -0.018152595646640
    50    8.100000000000000    0.000000000000000    8.100000000000000    0.011776220963620    0.000466457405720    0.012791337116583
    51    8.100000000000000    2.700000000000000    0.000000000000000    0.011583081664774   -0.012940014514293    0.002184715462855
    52    8.100000000000000    2.700000000000000    5.400000000000000    0.002454075354644   -0.000094057731935    0.002417560531241
    53    8.100000000000000    5.400000000000000    2.700000000000000    0.002668623159212   -0.000253262002020   -0.005840679906505
    54    8.100000000000000    5.400000000000000    8.100000000000000    0.002684839371203    0.000233499260167    0.002220103319817
    55    8.100000000000000    8.100000000000000    0.000000000000000    0.012045368585038    0.012935901210197    0.003216222714323
    56    8.100000000000000    8.100000000000000    5.400000000000000    0.002901339209584    0.000059325506571    0.002923925898144
    57    9.449999999999999    1.350000000000000    4.050000000000000   -0.002163187452205   -0.000098653272356   -0.002387563405840
    58    9.449999999999999    1.350000000000000    9.449999999999999    0.107618705935072   -0.080973423601379    0.082339130961419
    59    9.449999999999999    4.050000000000000    1.350000000000000   -0.003181662907214    0.000933039304311   -0.000767012917474
    60    9.449999999999999    4.050000000000000    6.750000000000000    0.000543248629554    0.001002666711630    0.001455427587583
    61    9.449999999999999    6.750000000000000    4.050000000000000    0.001466684345049   -0.000119943970077    0.001636158839876
    62    9.449999999999999    6.750000000000000    9.449999999999999   -0.002213139689483    0.000097179515365    0.003801974320640
    63    9.449999999999999    9.449999999999999    1.350000000000000    0.109527968348878    0.083262909456540   -0.084242404399113
    64    9.449999999999999    9.449999999999999    6.750000000000000   -0.000681269776921    0.002257281488133    0.000749966958701
