ITEM: TIMESTEP
0
ITEM: NUMBER OF ATOMS
64
ITEM: BOX BOUNDS xy xz yz pp pp pp
0.0000000000000000e+00 1.0800000000000001e+01 0.0000000000000000e+00
0.0000000000000000e+00 1.0800000000000001e+01 0.0000000000000000e+00
0.0000000000000000e+00 1.0800000000000001e+01 0.0000000000000000e+00
ITEM: ATOMS id xu yu zu fx fy fz
     1    0.040000000000000    0.000000000000000    0.000000000000000   -0.403730756699386    0.100453606489970    0.100456455942032
     2    0.000000000000000    0.000000000000000    5.400000000000000   -0.005834254459725    0.001586361537343    0.000188385172712
     3    0.000000000000000    2.700000000000000    2.700000000000000    0.093908719625043   -0.081547650489739   -0.081544371663257
     4    0.000000000000000    2.700000000000000    8.100000000000000   -0.018402958060064   -0.002002342663305    0.000222382010821
     5    0.000000000000000    5.400000000000000    0.000000000000000   -0.005834198306807    0.000189085438681    0.001586501353995
     6    0.000000000000000    5.400000000000000    5.400000000000000   -0.006828727833252    0.000756990392921    0.000758420543982
     7    0.000000000000000    8.100000000000000    2.700000000000000   -0.018403024445977    0.000223501212527   -0.002004079701376
     8    0.000000000000000    8.100000000000000    8.100000000000000   -0.015325055461117   -0.001140840634015   -0.001137410472334
     9    1.390000000000000    1.350000000000000    1.350000000000000   -0.417827171502488    0.082028817903123    0.082025625105791
    10    1.350000000000000    1.350000000000000    6.750000000000000   -0.005831886421234    0.001413326680112    0.000254240872852
    11    1.350000000000000    4.050000000000000    4.050000000000000   -0.015168032567351   -0.001193707063762   -0.001197138202463
    12    1.350000000000000    4.050000000000000    9.449999999999999   -0.018784927744044    0.000274240310568   -0.001941450428611
    13    1.350000000000000    6.750000000000000    1.350000000000000   -0.005831845592098    0.000254234907890    0.001413622408530
    14    1.350000000000000    6.750000000000000    6.750000000000000   -0.006852165403072    0.000645428891379    0.000643893479308
    15    1.350000000000000    9.449999999999999    4.050000000000000   -0.018784847165635   -0.001943311651021    0.000275004082814
    16    1.350000000000000    9.449999999999999    9.449999999999999    0.107450479968497   -0.100019349388933   -0.100022887074197
    17    2.700000000000000    0.000000000000000    2.700000000000000    0.136223300621812   -0.101323394777072    0.116466637116625
    18    2.700000000000000    0.000000000000000    8.100000000000000    0.009850934913536   -0.000989010445356   -0.015414851124860
    19    2.700000000000000    2.700000000000000    0.000000000000000    0.136223661913390    0.116470357710249   -0.101326386411202
    20    2.700000000000000    2.700000000000000    5.400000000000000    0.000129378688763   -0.000509896058763   -0.000528496970001
    21    2.700000000000000    5.400000000000000    2.700000000000000    0.000129819118931   -0.000527797886739   -0.000510999371044
    22    2.700000000000000    5.400000000000000    8.100000000000000    0.003585694928742   -0.000420189098119    0.002605839260234
    23    2.700000000000000    8.100000000000000    0.000000000000000    0.009850716112559   -0.015414621782356   -0.000989728657634
    24    2.700000000000000    8.100000000000000    5.400000000000000    0.003585979395723    0.002606838699901   -0.000421905464512
    25    4.050000000000000    1.350000000000000    4.050000000000000    0.013156192553259   -0.000366513541846    0.013722940047760
    26    4.050000000000000    1.350000000000000    9.449999999999999    0.014315166106105   -0.000673049699333   -0.015499757473804
    27    4.050000000000000    4.050000000000000    1.350000000000000    0.013155998949105    0.013725006341450   -0.000368417341743
    28    4.050000000000000    4.050000000000000    6.750000000000000    0.004872642936021   -0.001719522783344   -0.000046382156100
    29    4.050000000000000    6.750000000000000    4.050000000000000    0.004872294551387   -0.000045638592734   -0.001720849318902
    30    4.050000000000000    6.750000000000000    9.449999999999999    0.003578878519841    0.001565482627687    0.002724162766110
    31    4.050000000000000    9.449999999999999    1.350000000000000    0.014315519684370   -0.015499059933205   -0.000674567473629
    32    4.050000000000000    9.449999999999999    6.750000000000000    0.003578410938811    0.002724642585596    0.001564624598757
    33    5.400000000000000    0.000000000000000    0.000000000000000    0.007284829396457    0.000223936654753    0.000222990025568
    34    5.400000000000000    0.000000000000000    5.400000000000000   -0.001130839141095    0.000743917047416   -0.001829460735358
    35    5.400000000000000    2.700000000000000    2.700000000000000    0.004170640236747    0.000000535201073   -0.000001081303628
    36    5.400000000000000    2.700000000000000    8.100000000000000    0.003156336089947   -0.000971919543680    0.002061537043556
    37    5.400000000000000    5.400000000000000    0.000000000000000   -0.001130625019528   -0.001827835180370    0.000743897044225
    38    5.400000000000000    5.400000000000000    5.400000000000000    0.006292826288529    0.000270811485861    0.000269968163647
    39    5.400000000000000    8.100000000000000    2.700000000000000    0.003156226972280    0.002061524856522   -0.000973059622753
    40    5.400000000000000    8.100000000000000    8.100000000000000    0.004445208311692   -0.000479185709027   -0.000479644702568
    41    6.750000000000000    1.350000000000000    1.350000000000000    0.007193497137934    0.000204445061560    0.000205116171207
    42    6.750000000000000    1.350000000000000    6.750000000000000   -0.001207962705872    0.000640476173148   -0.001868324211127
    43    6.750000000000000    4.050000000000000    4.050000000000000    0.004506902833774   -0.000537101273416   -0.000536408926448
    44    6.750000000000000    4.050000000000000    9.449999999999999    0.003074061729063    0.002115762661885   -0.000888117329770
    45    6.750000000000000    6.750000000000000    1.350000000000000   -0.001207770078737   -0.001869523065644    0.000641229815243
    46    6.750000000000000    6.750000000000000    6.750000000000000    0.006326076169414    0.000271668434927    0.000272956403920
    47    6.750000000000000    9.449999999999999    4.050000000000000    0.003074181953901   -0.000889577202797    0.002115725226606
    48    6.750000000000000    9.449999999999999    9.449999999999999    0.004055116971997    0.000046535496761    0.000048406437945
    49    8.100000000000000    0.000000000000000    2.700000000000000    0.013596851858293   -0.000703074438395   -0.014587661048224
    50    8.100000000000000    0.000000000000000    8.100000000000000    0.012756199685180   -0.000080206164578    0.013091662103124
    51    8.100000000000000    2.700000000000000    0.000000000000000    0.013596915878790   -0.014588617036228   -0.000701190178891
    52    8.100000000000000    2.700000000000000    5.400000000000000    0.003484175337880    0.002503898419642    0.001659815570627
    53    8.100000000000000    5.400000000000000    2.700000000000000    0.003483820062686    0.001659134227985    0.002504887112093
    54    8.100000000000000    5.400000000000000    8.100000000000000    0.004912332970403   -0.000017314433485   -0.001583982957324
    55    8.100000000000000    8.100000000000000    0.000000000000000    0.012756315076341    0.013089633501824   -0.000078080786911
    56    8.100000000000000    8.100000000000000    5.400000000000000    0.004911840912460   -0.001585799648207   -0.000016642758195
    57    9.449999999999999    1.350000000000000    4.050000000000000    0.009358070106830   -0.001063272833835   -0.014657871890532
    58    9.449999999999999    1.350000000000000    9.449999999999999    0.121503591872864   -0.082093201954579    0.096542158867287
    59    9.449999999999999    4.050000000000000    1.350000000000000    0.009358143486147   -0.014657548908409   -0.001062400920942
    60    9.449999999999999    4.050000000000000    6.750000000000000    0.003461112789334    0.002641860997253   -0.000501894370775
    61    9.449999999999999    6.750000000000000    4.050000000000000    0.003461655035233   -0.000503308940944    0.002642921269248
    62    9.449999999999999    6.750000000000000    9.449999999999999    0.000226132069300   -0.000392020130726   -0.000334297347737
    63    9.449999999999999    9.449999999999999    1.350000000000000    0.121503647717250    0.096539153554881   -0.082090487382649
    64    9.449999999999999    9.449999999999999    6.750000000000000    0.000226550028017   -0.000335812550929   -0.000391720339963
