ITEM: TIMESTEP
0
ITEM: NUMBER OF ATOMS
64
ITEM: BOX BOUNDS xy xz yz pp pp pp
0.0000000000000000e+00 1.0800000000000001e+01 0.0000000000000000e+00
0.0000000000000000e+00 1.0800000000000001e+01 0.0000000000000000e+00
0.0000000000000000e+00 1.0800000000000001e+01 0.0000000000000000e+00
ITEM: ATOMS id xu yu zu fx fy fz
     1    0.040000000000000    0.040000000000000    0.000000000000000   -0.533784370011228   -0.533779542351510   -0.086802389710916
     2    0.000000000000000    0.000000000000000    5.400000000000000   -0.003335153309348   -0.003331580040001    0.000021931416916
     3    0.000000000000000    2.700000000000000    2.700000000000000   -0.016843476235569    0.013022196932487    0.016251768871807
     4    0.000000000000000    2.700000000000000    8.100000000000000   -0.015602159004866    0.011772320032740   -0.015138684440099
     5    0.000000000000000    5.400000000000000    0.000000000000000   -0.003341899784212    0.005383519768234   -0.000091359409384
     6    0.000000000000000    5.400000000000000    5.400000000000000   -0.007697610371729   -0.002025431488536    0.000070850893015
     7    0.000000000000000    8.100000000000000    2.700000000000000   -0.016329352869944    0.012128490998968   -0.015197985469757
     8    0.000000000000000    8.100000000000000    8.100000000000000   -0.015651456587565    0.011460135776149    0.014404370570123
     9    1.350000000000000    1.350000000000000    1.350000000000000    0.246246736403445    0.246245004096205    0.226806462658745
    10    1.350000000000000    1.350000000000000    6.750000000000000   -0.000988370034695   -0.000985963172529    0.000360336206632
    11    1.350000000000000    4.050000000000000    4.050000000000000    0.000121054018652    0.000246731037119   -0.002354020110531
    12    1.350000000000000    4.050000000000000    9.449999999999999   -0.002690495543573    0.001732041850182   -0.001293138352281
    13    1.350000000000000    6.750000000000000    1.350000000000000   -0.002333991105116    0.002185034588322    0.001645342824469
    14    1.350000000000000    6.750000000000000    6.750000000000000    0.001582994830516    0.001418160150526   -0.001165315027359
    15    1.350000000000000    9.449999999999999    4.050000000000000   -0.004150736392690   -0.003834804031659   -0.000305022496959
    16    1.350000000000000    9.449999999999999    9.449999999999999    0.023702559194786    0.027992331549714    0.002234441031577
    17    2.700000000000000    0.000000000000000    2.700000000000000    0.013022028216622   -0.016839400829550    0.016252031432979
    18    2.700000000000000    0.000000000000000    8.100000000000000    0.011774929960724   -0.015600727054032   -0.015138855984179
    19    2.700000000000000    2.700000000000000    0.000000000000000    0.029141323612831    0.029139567445744   -0.000891518180863
    20    2.700000000000000    2.700000000000000    5.400000000000000    0.000744850769657    0.000743113628742   -0.000371515368169
    21    2.700000000000000    5.400000000000000    2.700000000000000    0.002919216097848    0.002007918925753   -0.001701590924870
    22    2.700000000000000    5.400000000000000    8.100000000000000    0.002415723682900    0.002449862600233    0.002244631706352
    23    2.700000000000000    8.100000000000000    0.000000000000000   -0.003404832293019   -0.002883991814542   -0.000012218607588
    24    2.700000000000000    8.100000000000000    5.400000000000000    0.004502445773032    0.004677690391572    0.000058266211596
    25    4.050000000000000    1.350000000000000    4.050000000000000    0.000250904196524    0.000121782772458   -0.002354092204296
    26    4.050000000000000    1.350000000000000    9.449999999999999    0.001734979851076   -0.002688366617783   -0.001293576622722
    27    4.050000000000000    4.050000000000000    1.350000000000000   -0.000794997176733   -0.000798765490053   -0.001523242212097
    28    4.050000000000000    4.050000000000000    6.750000000000000    0.002451063665901    0.002447410846586   -0.000445022057670
    29    4.050000000000000    6.750000000000000    4.050000000000000    0.001936930170125    0.001954698609209    0.000076612480662
    30    4.050000000000000    6.750000000000000    9.449999999999999    0.002755376023849    0.002664720994202    0.000023359459671
    31    4.050000000000000    9.449999999999999    1.350000000000000    0.001960797834274   -0.002216709976350   -0.001796418651124
    32    4.050000000000000    9.449999999999999    6.750000000000000    0.001682294941294    0.001490689357590    0.001157697770888
    33    5.400000000000000    0.000000000000000    0.000000000000000    0.005387146105175   -0.003338422468477   -0.000091402809625
    34    5.400000000000000    0.000000000000000    5.400000000000000   -0.002021767407785   -0.007693992005212    0.000071880877402
    35    5.400000000000000    2.700000000000000    2.700000000000000    0.002012022356809    0.002918419312622   -0.001701269279721
    36    5.400000000000000    2.700000000000000    8.100000000000000    0.002454075817443    0.002414799370901    0.002244570668336
    37    5.400000000000000    5.400000000000000    0.000000000000000   -0.002025322576558   -0.002028910089823    0.000050576552827
    38    5.400000000000000    5.400000000000000    5.400000000000000    0.004090951326934    0.004087237161071    0.000177225500145
    39    5.400000000000000    8.100000000000000    2.700000000000000    0.002043038822225    0.002899078694675    0.001661957969004
    40    5.400000000000000    8.100000000000000    8.100000000000000    0.002544164227123    0.002448498218020   -0.002082538183511
    41    6.750000000000000    1.350000000000000    1.350000000000000    0.002186630935565   -0.002331015308988    0.001645303846528
    42    6.750000000000000    1.350000000000000    6.750000000000000    0.001420632627274    0.001585115271662   -0.001165739465259
    43    6.750000000000000    4.050000000000000    4.050000000000000    0.001957120743735    0.001934092750831    0.000076629192840
    44    6.750000000000000    4.050000000000000    9.449999999999999    0.002667057099577    0.002752636203675    0.000023335754090
    45    6.750000000000000    6.750000000000000    1.350000000000000   -0.001190483516023   -0.001191982109881    0.001215390317690
    46    6.750000000000000    6.750000000000000    6.750000000000000    0.002521563551755    0.002519893773773    0.000631154017409
    47    6.750000000000000    9.449999999999999    4.050000000000000    0.000053541087518    0.000195878399111    0.002765839904168
    48    6.750000000000000    9.449999999999999    9.449999999999999    0.001546866341246   -0.002752339241127    0.001279553665552
    49    8.100000000000000    0.000000000000000    2.700000000000000    0.012128398902011   -0.016325768904803   -0.015197797933409
    50    8.100000000000000    0.000000000000000    8.100000000000000    0.011457536389692   -0.015645550503856    0.014404334626085
    51    8.100000000000000    2.700000000000000    0.000000000000000   -0.002884273504730   -0.003405143756595   -0.000012293221035
    52    8.100000000000000    2.700000000000000    5.400000000000000    0.004677381396256    0.004502153027095    0.000058326066904
    53    8.100000000000000    5.400000000000000    2.700000000000000    0.002898370098327    0.002039936527765    0.001661796040855
    54    8.100000000000000    5.400000000000000    8.100000000000000    0.002447707757712    0.002540987524904   -0.002082506456083
    55    8.100000000000000    8.100000000000000    0.000000000000000    0.025642767060107    0.025644870891919    0.001085247136771
    56    8.100000000000000    8.100000000000000    5.400000000000000    0.000747551714734    0.000749015290152    0.000578694850585
    57    9.449999999999999    1.350000000000000    4.050000000000000   -0.003837573882331   -0.004148393191066   -0.000304906848687
    58    9.449999999999999    1.350000000000000    9.449999999999999    0.027989505134746    0.023705039539113    0.002234444888234
    59    9.449999999999999    4.050000000000000    1.350000000000000   -0.002218889501473    0.001957582822601   -0.001796446933271
    60    9.449999999999999    4.050000000000000    6.750000000000000    0.001487912873468    0.001679631997138    0.001158133058847
    61    9.449999999999999    6.750000000000000    4.050000000000000    0.000191869584694    0.000052622689058    0.002765854610884
    62    9.449999999999999    6.750000000000000    9.449999999999999   -0.002755279093217    0.001544726513973    0.001280042175371
    63    9.449999999999999    9.449999999999999    1.350000000000000    0.175388260790292    0.175394051739950   -0.145842668717181
    64    9.449999999999999    9.449999999999999    6.750000000000000   -0.001005791786074   -0.001002889523529   -0.000524859577312
