Random disp. with mag 0.040000 : 5

64 atoms
1 atom types

0.000000   10.800000   xlo xhi
0.000000   10.800000   ylo yhi
0.000000   10.800000   zlo zhi
0.000000    0.000000    0.000000   xy xz yz

Masses

 1 28.085 # Si

Atoms

    1   1  -0.033558194310188   0.021747823799947   0.000937952347460
    2   1  -0.012986875605209   0.028058168302442   5.425378736247628
    3   1  -0.030926445762017   2.698564661438815   2.725327746756153
    4   1   0.002883612177143   2.729680128718748   8.126660358963269
    5   1  -0.010736920851575   5.438494225298652  -0.001706795032709
    6   1   0.002238367793673   5.414668296688680   5.362853926427237
    7   1   0.034346742080294   8.082807884855956   2.688831630139373
    8   1   0.030298139369400   8.075835296612816   8.090095967439380
    9   1   1.356733137489841   1.323055753614368   1.321213328670142
   10   1   1.338846622715670   1.378258742098529   6.723979898728825
   11   1   1.369461663282082   4.038531872483234   4.083010993828633
   12   1   1.347878753763390   4.061310990262236   9.488308769409773
   13   1   1.375229738529316   6.775845632941550   1.367189053248886
   14   1   1.358233353123898   6.735124382411683   6.786206738291419
   15   1   1.321384571362320   9.439633375584593   4.024044454501750
   16   1   1.355363918040194   9.461393413062369   9.487966017990411
   17   1   2.678056211701458   0.006264357440945   2.732851605454846
   18   1   2.724603510527145   0.000745224691039   8.131529540274171
   19   1   2.700992875054945   2.734035586236107   0.020990308923162
   20   1   2.694341836723599   2.729140895074196   5.426810323060574
   21   1   2.729163732165465   5.392414175803864   2.726304600309573
   22   1   2.696870520664358   5.403794353636394   8.060303536183058
   23   1   2.689953837881251   8.100398887028906   0.038715830300046
   24   1   2.662119196889971   8.096189839214135   5.387731037919814
   25   1   4.066980091338421   1.381204584113142   4.031616571906613
   26   1   4.025005661704931   1.336551750607721   9.421814407200225
   27   1   4.016203743593129   4.069616717671380   1.341456146028726
   28   1   4.062529941695067   4.077635737460785   6.723937256934144
   29   1   4.058861905981367   6.745630196266076   4.088760436500436
   30   1   4.086767185090476   6.764085471431712   9.457055040401661
   31   1   4.087674373089988   9.443956515623281   1.362004911864098
   32   1   4.052982061714173   9.489564297295642   6.755076779238339
   33   1   5.370517375468906   0.009843329227559   0.025177047493231
   34   1   5.432548668163178   0.017930918921014   5.414800890089834
   35   1   5.415322939114168   2.726778206283621   2.674541500336129
   36   1   5.360020411296376   2.700968106057770   8.100833821173849
   37   1   5.408689764585247   5.438947610740937  -0.002751655688037
   38   1   5.433880751732358   5.408294678759368   5.380422130699967
   39   1   5.425429365949538   8.130475612781002   2.695041736894142
   40   1   5.415953215620709   8.102113425229589   8.063379946133871
   41   1   6.735571110262929   1.387111801888891   1.346189317447601
   42   1   6.729518764316061   1.381230984747839   6.764322869005169
   43   1   6.767204725919346   4.086109661308678   4.049700389898863
   44   1   6.774526560541207   4.039292828655153   9.479728846425829
   45   1   6.775620668426654   6.765044132418476   1.323218375158576
   46   1   6.757852602521145   6.759189863064805   6.788129818390534
   47   1   6.725744132989601   9.426774950213959   4.071731313306144
   48   1   6.723704231176507   9.469013698389418   9.426611716276355
   49   1   8.103125106044727   0.033206337088836   2.722081052722907
   50   1   8.124204135030098   0.025399776376517   8.119209664428814
   51   1   8.067048481840899   2.703270975549351  -0.022438764893951
   52   1   8.108501066829387   2.662474012679116   5.410933075429865
   53   1   8.088869911962254   5.438384599576432   2.698343601609200
   54   1   8.129380902070922   5.424979595569045   8.089380094223310
   55   1   8.086208861777289   8.133886385376080   0.016171499394488
   56   1   8.104838883820076   8.104980906779661   5.439392585229053
   57   1   9.411548826015553   1.350421282719650   4.061014977988536
   58   1   9.467196431882833   1.318934816830176   9.468418390948298
   59   1   9.464731880409900   4.023410515183065   1.324000557760629
   60   1   9.417079273599255   4.072554505653300   6.752742270588860
   61   1   9.426345287452563   6.782163921988286   4.047563466267516
   62   1   9.426706548556712   6.782401192536160   9.447247211941715
   63   1   9.415335710572840   9.438275999356470   1.366153477873840
   64   1   9.467690941460443   9.414775590573777   6.756802320987503

