Random disp. with mag 0.040000 : 10

64 atoms
1 atom types

0.000000   10.800000   xlo xhi
0.000000   10.800000   ylo yhi
0.000000   10.800000   zlo zhi
0.000000    0.000000    0.000000   xy xz yz

Masses

 1 28.085 # Si

Atoms

    1   1  -0.012752649400248   0.010768632456363  -0.036351155253913
    2   1   0.028296009093095   0.001098336347763   5.371748813712153
    3   1   0.013947047219770   2.681279563430068   2.667518849643514
    4   1  -0.016285692145278   2.702973021632649   8.136413422988246
    5   1   0.036255487456963   5.403972975389457   0.016424222837406
    6   1   0.008707725022251   5.438109647618919   5.391524725178574
    7   1  -0.027432047472455   8.092354402521160   2.728089635288849
    8   1  -0.025026673195829   8.125528305828768   8.082056443210387
    9   1   1.341392160906151   1.334778832702965   1.385975285575657
   10   1   1.346684795388829   1.389089447745083   6.742188182454096
   11   1   1.327311079959248   4.017108313161510   4.051830257988122
   12   1   1.341822993156871   4.030330264544019   9.416143862208173
   13   1   1.345119407930820   6.710302626641181   1.350546232061283
   14   1   1.374171525703658   6.725209888779791   6.729970328738418
   15   1   1.310824757052418   9.447741307972223   4.042241221080508
   16   1   1.339076221045437   9.424540341340315   9.478852674646975
   17   1   2.666833876244398  -0.021032650654351   2.707591827282029
   18   1   2.692975680582939   0.032185102907965   8.077311278406864
   19   1   2.725343072301754   2.672933668676297   0.015004745748717
   20   1   2.721644511766887   2.685444114644705   5.430325588401490
   21   1   2.685138108870907   5.417262002564871   2.732880806856241
   22   1   2.679101600278432   5.388445021335751   8.132089552149358
   23   1   2.675921514144096   8.131618002953973  -0.004530828631672
   24   1   2.690735973361719   8.095385789712196   5.438637894273176
   25   1   4.042850072205350   1.315092564046014   4.031824482190329
   26   1   4.038556613493079   1.313171044441260   9.439385060635802
   27   1   4.063352982241712   4.020073522265200   1.372936952623247
   28   1   4.083140983402584   4.045544708310153   6.728049473922749
   29   1   4.028647854932998   6.782234134867798   4.060249217060943
   30   1   4.060075718318961   6.786191485063739   9.463735221484857
   31   1   4.053828723630057   9.487921610592871   1.362136404962231
   32   1   4.078637392770212   9.476164735695905   6.740237503327120
   33   1   5.360681285304068   0.001645477637506   0.007164571027236
   34   1   5.381601029258374   0.035113008672343   5.394656359141485
   35   1   5.362829073398703   2.685242933115210   2.700742423436294
   36   1   5.363515155937570   2.683709411773534   8.101863568881440
   37   1   5.439382575451765   5.400527182769807  -0.006981033527587
   38   1   5.386698439729007   5.424081621596416   5.370963058087255
   39   1   5.393805431083822   8.083086260421718   2.735714881064072
   40   1   5.437938941910053   8.103524667716716   8.112174292761075
   41   1   6.739254378657115   1.384060765096001   1.331989006051014
   42   1   6.728406616170938   1.329383015113337   6.723379224109845
   43   1   6.770620610781561   4.018825606877399   4.064245968708127
   44   1   6.754434847278679   4.078446913720049   9.422231218438345
   45   1   6.728294291913908   6.775851251823208   1.328538988475506
   46   1   6.736664862615608   6.769071142384679   6.782534068898351
   47   1   6.784443038591257   9.432824488794024   4.060893984918963
   48   1   6.736493477781675   9.412359787585105   9.449112156022959
   49   1   8.130026508289408  -0.023171074343698   2.687291337060695
   50   1   8.114830982677086  -0.003507424454316   8.063017031939969
   51   1   8.060336197239492   2.704038547532283   0.003236183617330
   52   1   8.130664522183716   2.680106262106287   5.383754192175807
   53   1   8.136632002868316   5.412634136643065   2.690076545100621
   54   1   8.102670427859884   5.438056488294554   8.112023831075479
   55   1   8.074880948028637   8.068870709167408   0.000021916200488
   56   1   8.130868376898331   8.075305012768167   5.393892552637785
   57   1   9.446545750431813   1.372070975245733   4.016819580900433
   58   1   9.454442291806755   1.389748261627975   9.449415413772273
   59   1   9.413429926119411   4.055509931254150   1.334759581569300
   60   1   9.486023292739839   4.059285071460801   6.735299325588682
   61   1   9.452635974364743   6.772462445758624   4.017007725605995
   62   1   9.489993029407474   6.750464814733857   9.449415580564938
   63   1   9.441193152701414   9.411026788333185   1.351878353809337
   64   1   9.475512874766757   9.424623791009518   6.732531707627614

