Random disp. with mag 0.040000 : 3

64 atoms
1 atom types

0.000000   10.800000   xlo xhi
0.000000   10.800000   ylo yhi
0.000000   10.800000   zlo zhi
0.000000    0.000000    0.000000   xy xz yz

Masses

 1 28.085 # Si

Atoms

    1   1  -0.019455609779656   0.015067092989854  -0.031535090882013
    2   1  -0.007786937157269  -0.000670473693728   5.439228995331703
    3   1   0.015313841203843   2.736509984322326   2.705701518426435
    4   1  -0.020215056542441   2.699557346446498   8.134513121371697
    5   1  -0.022134928227645   5.417599373943003   0.028289697580062
    6   1  -0.032737155524551   5.408043221301969   5.421531029683900
    7   1  -0.032605552697484   8.122785015730642   2.695790369203126
    8   1  -0.010482556775623   8.137574498855940   8.108847205161563
    9   1   1.346785409275972   1.318847451787571   1.325116568838899
   10   1   1.338923513085073   1.367360273570333   6.715708130129918
   11   1   1.330580594770065   4.062456294171950   4.017323901150575
   12   1   1.383987105839348   4.059427234970865   9.431131934983441
   13   1   1.338307788086932   6.712845423241813   1.359101077216454
   14   1   1.366110562409206   6.766918117363020   6.782468863296244
   15   1   1.365651045208409   9.486730616841141   4.047569656330149
   16   1   1.348326004169716   9.437867806304459   9.488078965507141
   17   1   2.682250690861149   0.001751714458139   2.664196459371305
   18   1   2.701489081803966   0.031537587726145   8.075440618985878
   19   1   2.720412439945515   2.667178020960655  -0.010298057458158
   20   1   2.738223936217859   2.690771903238453   5.407333002807348
   21   1   2.724614580592930   5.396503913229814   2.668664719571552
   22   1   2.735257124503525   5.389679936922296   8.084174973307599
   23   1   2.732291018362765   8.085305156227502   0.018475705658985
   24   1   2.663288285618540   8.095989943876086   5.415367806514177
   25   1   4.079824230666333   1.332184129757086   4.069827002613835
   26   1   4.059264484816148   1.352179469517285   9.411148755055795
   27   1   4.025861471301641   4.037028275880629   1.379138733768808
   28   1   4.059406255653050   4.084127252586476   6.731376010484101
   29   1   4.082575501471176   6.753696213543119   4.072916690628122
   30   1   4.014221406153529   6.733109391678219   9.455882140162338
   31   1   4.075376402834117   9.430636628555742   1.374105974892387
   32   1   4.016920480978859   9.464042770359475   6.767565478130726
   33   1   5.360333713202203  -0.002589331858593   0.004458817354515
   34   1   5.418607531748731   0.033166478556130   5.412399373468276
   35   1   5.430545642983144   2.698678387497223   2.725791801704007
   36   1   5.437650672003671   2.713065889197058   8.103421905487041
   37   1   5.379188925487988   5.367592407640688   0.010800330324952
   38   1   5.395261372951039   5.405115929327910   5.439387468575712
   39   1   5.431125786003975   8.076170347321424   2.692041790474407
   40   1   5.374422836933540   8.111819278137689   8.128392136125617
   41   1   6.721613592727575   1.338177274369374   1.375581928012309
   42   1   6.742646323167424   1.330621531168932   6.784211085671246
   43   1   6.727433814365332   4.079062029730303   4.034310331620563
   44   1   6.772751679781939   4.054849120428194   9.417460069173814
   45   1   6.751212965455245   6.722207098922505   1.378741666000790
   46   1   6.756847243948855   6.711462454138855   6.741755437591659
   47   1   6.764750434412335   9.431454229618957   4.082225441589233
   48   1   6.724634328464999   9.420963820881767   9.439347159543468
   49   1   8.075088385886897  -0.006308318619560   2.730653166206348
   50   1   8.126071082913654  -0.027509577436212   8.112787563684707
   51   1   8.101657868692843   2.739116816884248   0.008193052437371
   52   1   8.097864605954602   2.681612664788680   5.364540925052994
   53   1   8.068654105583992   5.375979729042512   2.706360934395927
   54   1   8.099653911731258   5.367869961354043   8.123823115655169
   55   1   8.125434370620495   8.072134093966989   0.013288493974065
   56   1   8.106802859087127   8.102932105111833   5.439308063649255
   57   1   9.481419952699062   1.325855125945983   4.044539997316456
   58   1   9.477960086402010   1.335596325554265   9.425286284559917
   59   1   9.462891119197739   4.017447627657186   1.330656729834786
   60   1   9.445016194529449   4.050510005236993   6.710314970357955
   61   1   9.465237837146589   6.713028177486885   4.050944806410221
   62   1   9.478074417538890   6.762501385351011   9.424396436885512
   63   1   9.456843448148033   9.453420082761919   1.389261562008494
   64   1   9.466124396003320   9.417909363292663   6.767612350474764

