Random disp. with mag 0.040000 : 6

64 atoms
1 atom types

0.000000   10.800000   xlo xhi
0.000000   10.800000   ylo yhi
0.000000   10.800000   zlo zhi
0.000000    0.000000    0.000000   xy xz yz

Masses

 1 28.085 # Si

Atoms

    1   1   0.001545563319488   0.012392704586284  -0.038000422459001
    2   1  -0.025352278759198  -0.022873091236571   5.420834674439488
    3   1   0.014254903038600   2.671353031886814   2.724003103076106
    4   1   0.037381901889285   2.699213839828245   8.114211803661894
    5   1   0.024866384119175   5.397848606409332  -0.031257550231195
    6   1  -0.023966415390059   5.431942944579306   5.402293300014077
    7   1  -0.031488941676338   8.116026987243913   2.681249473821048
    8   1  -0.038121290703680   8.095771892945333   8.111352986647566
    9   1   1.379384720360957   1.328693130559704   1.333190612028914
   10   1   1.336697275585533   1.386100745956756   6.760944115520155
   11   1   1.319508476323726   4.025806002123417   4.059215066502589
   12   1   1.341986691937069   4.043821041444322   9.488698932350333
   13   1   1.337988955592362   6.713818598108485   1.362109540429035
   14   1   1.347731454669015   6.789837092939583   6.752803520680200
   15   1   1.363033784151133   9.422251692896959   4.024306578203420
   16   1   1.343441783752658   9.427927199365516   9.417292489061325
   17   1   2.679940658799427  -0.033861611495470   2.692857584615211
   18   1   2.709498720870128  -0.024830871662300   8.129886487152588
   19   1   2.701057155517835   2.739983292565179   0.000467694193243
   20   1   2.682587828302976   2.664001673637741   5.399032128154360
   21   1   2.671773838483624   5.380946474527878   2.720982063128650
   22   1   2.684798296184222   5.436628818133021   8.105218992553690
   23   1   2.704786780743224   8.089510593867715  -0.038302207366003
   24   1   2.697679339502614   8.097950754143502   5.439880009105760
   25   1   4.062198001757252   1.316929053958819   4.068908233155728
   26   1   4.038451900356244   1.387484172297964   9.457847179222780
   27   1   4.014589528435105   4.032006021577829   1.345276098636273
   28   1   4.029131916245754   4.031946412815016   6.778958436942969
   29   1   4.079045333211501   6.749079843395469   4.077486759184306
   30   1   4.038329619340677   6.730126825718228   9.482693411556960
   31   1   4.035951819500573   9.449515155070420   1.312551187601610
   32   1   4.031361040702743   9.469318569039926   6.779654377190641
   33   1   5.422853353198294   0.030724766373573   0.011563432833007
   34   1   5.419947254992784  -0.033798684868114   5.392269804695947
   35   1   5.436619006097431   2.696726981712216   2.715758672016516
   36   1   5.428892313547272   2.684903350522648   8.123180280249471
   37   1   5.431216972601570   5.375447854585905  -0.004763693646525
   38   1   5.409448202909318   5.432322356698070   5.421586957156281
   39   1   5.419581474269830   8.108410131234679   2.666149807119671
   40   1   5.380982035766654   8.066770986141636   8.088417699951226
   41   1   6.763899296398811   1.313330964970842   1.357886154300313
   42   1   6.780081568491868   1.323886919694903   6.753634043759861
   43   1   6.774300926347901   4.081755727678662   4.048980814917440
   44   1   6.742208623664570   4.071848573841734   9.482587333058751
   45   1   6.751925164610895   6.723737385557182   1.319890718642770
   46   1   6.717831306192442   6.773686757136944   6.747972026861361
   47   1   6.768508192622500   9.442655368634005   4.015308456420244
   48   1   6.757676221400073   9.413314116164582   9.436027829365797
   49   1   8.083567491024377  -0.012091477272062   2.665594058272657
   50   1   8.121754734522341   0.008126607673745   8.132568232582987
   51   1   8.079409875930313   2.669694084445114  -0.016049868322669
   52   1   8.090568639532762   2.667641472039157   5.421540081428453
   53   1   8.077112222116288   5.400780195525504   2.732795440513704
   54   1   8.139683226735134   5.395892088497424   8.102892503928260
   55   1   8.078959122509698   8.131196530812939   0.013566795482923
   56   1   8.097308874658813   8.065903996900792   5.420741755399600
   57   1   9.470429751507487   1.371087504041010   4.022834904258171
   58   1   9.483456319240645   1.357616667523876   9.470558722691322
   59   1   9.464300536303520   4.070087700839783   1.381495697109336
   60   1   9.474670359561966   4.031716002052498   6.775633352846224
   61   1   9.430979018563054   6.784422887546881   4.057298429838681
   62   1   9.427290366241399   6.717856985491645   9.442851632853165
   63   1   9.437616558494307   9.486005406673160   1.362258102087007
   64   1   9.481149628210469   9.437139275948732   6.728452321720736

