Random disp. with mag 0.040000 : 17

64 atoms
1 atom types

0.000000   10.800000   xlo xhi
0.000000   10.800000   ylo yhi
0.000000   10.800000   zlo zhi
0.000000    0.000000    0.000000   xy xz yz

Masses

 1 28.085 # Si

Atoms

    1   1  -0.014653965381167   0.018167033674255   0.032484152845442
    2   1  -0.021593708373541  -0.029284914909092   5.383383576875701
    3   1   0.029397886691759   2.725446693452893   2.709393085242507
    4   1  -0.038621869600084   2.692672550955581   8.092606781546879
    5   1  -0.006428673054169   5.432453170997823   0.022482523322544
    6   1  -0.031797888373702   5.377561653976067   5.390757980594922
    7   1   0.019295602189238   8.098814658847902   2.735018205301069
    8   1   0.030696413470309   8.106995745521617   8.124673665002520
    9   1   1.377698643107906   1.327820741571185   1.331537452355411
   10   1   1.318982113477196   1.347098726545956   6.775089307045100
   11   1   1.322218041072156   4.042880978328942   4.022116630609293
   12   1   1.381004193309439   4.035658761789954   9.429189692846244
   13   1   1.357597330177883   6.759115578012378   1.388199303811307
   14   1   1.365680481088316   6.781260231303693   6.730585560742617
   15   1   1.352030728641565   9.422838578331888   4.020706087421592
   16   1   1.347640639323244   9.486240845860113   9.433235916113894
   17   1   2.714167652473620  -0.033439824246251   2.716764718242982
   18   1   2.669344309609354  -0.025451882532643   8.103525666209020
   19   1   2.710868649716911   2.734529794181313   0.017016632073570
   20   1   2.673624381312056   2.729799814826050   5.395962949695473
   21   1   2.727642151414226   5.409871305726219   2.727174782215365
   22   1   2.669343696145857   5.383459475084719   8.080337800999649
   23   1   2.725272932011459   8.130314044136814   0.006506737709135
   24   1   2.725984512581700   8.077465105522974   5.420420177198075
   25   1   4.083394910891932   1.349225370779080   4.072004087713196
   26   1   4.018507229958660   1.374101440990736   9.444772574506187
   27   1   4.068063228084891   4.085585722148468   1.347284089411413
   28   1   4.046299172361275   4.039309593134943   6.788366900785026
   29   1   4.040880400468354   6.716854479604900   4.029549880633100
   30   1   4.045240132628828   6.711312306734905   9.458978087348356
   31   1   4.046668449176905   9.455035869545824   1.389541633590819
   32   1   4.025830208782037   9.419591569135697   6.759547173657744
   33   1   5.371278861687284   0.009414423127613  -0.026200474255175
   34   1   5.361811569099356   0.004400643796951   5.388942058079413
   35   1   5.378256958438715   2.704838821530174   2.733223876201662
   36   1   5.423397945198258   2.694268916576610   8.068067401557444
   37   1   5.377868376067974   5.369376840765044   0.013130626055213
   38   1   5.384981926056038   5.433513471671366   5.384147408049590
   39   1   5.360813047355830   8.092135394585272   2.698409175014593
   40   1   5.426497306089259   8.082953429991143   8.075356395942450
   41   1   6.751616160415148   1.361080716074382   1.388400595786933
   42   1   6.763029178166869   1.326721511644299   6.779805242763135
   43   1   6.760276056102899   4.052949405488188   4.011455173132620
   44   1   6.737631816727717   4.017332052510090   9.469489311156110
   45   1   6.718649062385326   6.768633745108675   1.366428702136984
   46   1   6.767003480930673   6.735229847897864   6.783056379764276
   47   1   6.776631825475967   9.439478306734156   4.077929193376057
   48   1   6.729508504386147   9.421004089840904   9.431578930499205
   49   1   8.092103694789831  -0.021323817964832   2.667091898392181
   50   1   8.104462664982446  -0.035252991204392   8.081633965251108
   51   1   8.125019618113861   2.671199072199129  -0.012021866213097
   52   1   8.129760924118752   2.706345008119668   5.374037945621366
   53   1   8.131850147186189   5.379081256380791   2.687835531675739
   54   1   8.080752807458486   5.429517699426732   8.081072480357346
   55   1   8.072396550998928   8.082416471363530  -0.022997154692172
   56   1   8.117030344920305   8.134651697685728   5.389548818277709
   57   1   9.448738776884847   1.349192287762935   4.010028048368938
   58   1   9.470233203550752   1.342304950623761   9.416363655234685
   59   1   9.450971233452915   4.065144962819005   1.312990719990915
   60   1   9.470289344264652   4.082817842564718   6.739448615317987
   61   1   9.485582847252044   6.767890234825003   4.046285100358840
   62   1   9.425097169891746   6.764165975392078   9.422086308130407
   63   1   9.452766002081489   9.486031188847274   1.332850578355605
   64   1   9.425870808091096   9.418331907359335   6.746138134346507

