Random disp. with mag 0.040000 : 20

64 atoms
1 atom types

0.000000   10.800000   xlo xhi
0.000000   10.800000   ylo yhi
0.000000   10.800000   zlo zhi
0.000000    0.000000    0.000000   xy xz yz

Masses

 1 28.085 # Si

Atoms

    1   1   0.031616111370644  -0.009709637041192   0.022497654329448
    2   1   0.015095614391112   0.031734334664945   5.419106397607298
    3   1  -0.009771624203381   2.676415552345761   2.730794304494051
    4   1   0.017109771407942   2.714415945182381   8.133157747916083
    5   1   0.016333971728390   5.436071754430128   0.005659496435963
    6   1  -0.030008116904208   5.417867542852311   5.380499645329271
    7   1   0.013910974144213   8.096802626766186   2.662633415960745
    8   1   0.008557907831054   8.120066973149211   8.133527284443927
    9   1   1.380237913458780   1.325103910308043   1.341884994903920
   10   1   1.313697251797540   1.349329703930404   6.766782764257651
   11   1   1.330480103808957   4.017965349821119   4.063883617706046
   12   1   1.377331298816418   4.041335864400605   9.422108552218951
   13   1   1.364438713223733   6.717279513073215   1.332086505206498
   14   1   1.386776010918018   6.734542584974065   6.752931440204716
   15   1   1.361420812303332   9.427559950068051   4.081080688624671
   16   1   1.328573116286740   9.416676950308830   9.444480669096867
   17   1   2.710789481638813   0.037499294751800   2.691202842556635
   18   1   2.662308741412835   0.010352191358290   8.108497126584719
   19   1   2.732523940974141   2.701221027069298   0.023253007470146
   20   1   2.684188584123994   2.669326580447254   5.379772779208770
   21   1   2.711602586967762   5.416998750493612   2.665700984601428
   22   1   2.735293824162654   5.381177574572367   8.100249553595154
   23   1   2.700163864654566   8.065564803535441   0.020351668059946
   24   1   2.680696338356753   8.132030261419143   5.385807361042274
   25   1   4.045314532886694   1.311484662357652   4.059727032652668
   26   1   4.071335927182913   1.375061503417321   9.472731019724355
   27   1   4.012679692039325   4.064299929772799   1.348354818486195
   28   1   4.029604708617684   4.043601896695235   6.783809708125507
   29   1   4.074433212284792   6.724128461626925   4.031733045145488
   30   1   4.011111553486274   6.747667477285627   9.459069071922530
   31   1   4.057493551856735   9.483738989509064   1.370137707602348
   32   1   4.033112741364617   9.484733737510961   6.760410954533629
   33   1   5.380563826016504  -0.034183588823548   0.007329215239429
   34   1   5.422981784906765  -0.026273241213252   5.380466583538728
   35   1   5.371131464009784   2.702880879337311   2.672462604262106
   36   1   5.360462084346977   2.694165824633320   8.098352085073410
   37   1   5.363836359897572   5.384514521759026  -0.007238169533132
   38   1   5.418325322233042   5.406733508445384   5.434911923880977
   39   1   5.383180182314786   8.088347047108146   2.665629919669335
   40   1   5.429841780842808   8.117016268043797   8.120491821246329
   41   1   6.713380647075852   1.345313564018771   1.365396762945847
   42   1   6.739498200896532   1.317131830597638   6.770233528009916
   43   1   6.773118574222807   4.081146879551831   4.040232532565282
   44   1   6.710260227689236   4.051608844669771   9.445738296641341
   45   1   6.761036757792344   6.773481227212200   1.380443750525225
   46   1   6.751517807463308   6.751833141617949   6.789929135381484
   47   1   6.783565682423345   9.464852730077117   4.034102158237313
   48   1   6.731861246859904   9.480718692995717   9.431907251862762
   49   1   8.071224943054357  -0.027629912552997   2.702929851547230
   50   1   8.061501682340339  -0.006411490154104   8.108761982160431
   51   1   8.080484351382369   2.704874781851309   0.034574209476651
   52   1   8.089451043868412   2.714955299887270   5.435567661292467
   53   1   8.096547414662624   5.366157579709550   2.721042106438583
   54   1   8.101860554713509   5.430349141937839   8.125989765674106
   55   1   8.081500115263275   8.112281247835531  -0.033270485664176
   56   1   8.096327587418932   8.123336250830548   5.432278983611759
   57   1   9.457523792514436   1.319572912774146   4.025148744314422
   58   1   9.412375317601514   1.346914609728528   9.436776398323989
   59   1   9.416469340672087   4.066029364763482   1.335209653475501
   60   1   9.432269034512208   4.017404679662360   6.764938472310026
   61   1   9.478794166938187   6.730230227821927   4.030505076087276
   62   1   9.476414789596291   6.720062431008001   9.447550336057137
   63   1   9.487014973206390   9.438184668463286   1.340497910797738
   64   1   9.472276535157508   9.469743926737067   6.776719531028399

