Random disp. with mag 0.040000 : 19

64 atoms
1 atom types

0.000000   10.800000   xlo xhi
0.000000   10.800000   ylo yhi
0.000000   10.800000   zlo zhi
0.000000    0.000000    0.000000   xy xz yz

Masses

 1 28.085 # Si

Atoms

    1   1   0.012654106001041  -0.027298187104133  -0.026356831792576
    2   1   0.029264171429944  -0.007670517128189   5.373831862169712
    3   1   0.000812606147005   2.731629803347520   2.675527664364694
    4   1   0.002521855966399   2.721802162010018   8.066558917867782
    5   1  -0.028871476324616   5.375862877692352  -0.013558657070033
    6   1  -0.008423133758817   5.362125986350612   5.390273237549575
    7   1   0.018706430061364   8.127483221336293   2.722242797021499
    8   1   0.010006480571791   8.067827649081195   8.121559456925526
    9   1   1.359311665593655   1.312540648315246   1.360492371287265
   10   1   1.345889583354944   1.378627104726156   6.777633192902771
   11   1   1.316989708780629   4.036555353713496   4.068153846970907
   12   1   1.358359032170198   4.089108277525197   9.449181947318461
   13   1   1.365219768343171   6.718978738344997   1.370150433665606
   14   1   1.388180156302989   6.746560497251309   6.738578726624362
   15   1   1.317056923937027   9.436514755098969   4.031754400271068
   16   1   1.347596755928344   9.440555698060848   9.411205289293330
   17   1   2.664876973119110  -0.014025526677680   2.713025267142672
   18   1   2.737273613216611  -0.005113652968119   8.113584119813229
   19   1   2.685921415100856   2.735727961545037   0.011194025686677
   20   1   2.719183909048096   2.724702773207193   5.375065072097390
   21   1   2.690081037988860   5.374304425625454   2.670993937699445
   22   1   2.697483412537421   5.403997783323319   8.060279923010611
   23   1   2.694180486304066   8.098118918638633  -0.039529669784287
   24   1   2.693160177800875   8.121663325542837   5.432922897179767
   25   1   4.056493389964512   1.327377582833834   4.082342883735510
   26   1   4.023546149150492   1.354615025497479   9.420353831362389
   27   1   4.076272452139587   4.075249426833376   1.333500766588747
   28   1   4.046857430196379   4.014663780826878   6.768479065711731
   29   1   4.018194737673707   6.734391817151881   4.031430941958854
   30   1   4.088111901583341   6.762136294070640   9.449560313824815
   31   1   4.076517985175487   9.420316759381235   1.353962535627743
   32   1   4.073223445287526   9.459799757569284   6.781058595276678
   33   1   5.376766924942566  -0.025736449439622  -0.019946413051409
   34   1   5.426356730186340   0.021862747166761   5.420672277576668
   35   1   5.401721785416327   2.733328042856864   2.722051689602186
   36   1   5.420370980665952   2.726131996705855   8.077591477182272
   37   1   5.405984266410213   5.361502865653531  -0.009064171370924
   38   1   5.431108473083071   5.412558584526030   5.421784050521941
   39   1   5.375821048489737   8.126616437838386   2.717519804241477
   40   1   5.361351578937824   8.106918389343475   8.107644307574450
   41   1   6.712547013325867   1.336149137093120   1.347670324932085
   42   1   6.756268148275606   1.376639021256632   6.720826846867647
   43   1   6.776225303810555   4.077220623545333   4.063087058257964
   44   1   6.743821385734577   4.087625691339430   9.437911489877200
   45   1   6.721682452158735   6.743116915429867   1.322600371698542
   46   1   6.782400744481032   6.765420763746953   6.767674608978292
   47   1   6.736579709746795   9.483389163658074   4.032534045696441
   48   1   6.762831157311479   9.426546418858862   9.420246161025773
   49   1   8.111367039430695  -0.006487080541824   2.737798256581818
   50   1   8.090436865085699  -0.014198168380819   8.136151880521499
   51   1   8.088819305007199   2.716276650464852   0.034785955630441
   52   1   8.132310938353346   2.709133171743519   5.378260900740149
   53   1   8.082719162597508   5.399777550898505   2.736073857224670
   54   1   8.083702862815025   5.363742161539300   8.104446624532374
   55   1   8.132504493557590   8.119575986632789   0.012658540433926
   56   1   8.084983931984793   8.067124661450093   5.382861452319650
   57   1   9.480068183170312   1.373098661389047   4.037258092651777
   58   1   9.431023519104468   1.373054278605941   9.423384338994095
   59   1   9.444559082280794   4.015330314963399   1.330806007350326
   60   1   9.430249111336702   4.015305764863815   6.752492477748169
   61   1   9.434635100831910   6.716145434873800   4.064757652037853
   62   1   9.453171248423011   6.762979890135607   9.412297670688574
   63   1   9.485398379468180   9.443012166260727   1.367266294062682
   64   1   9.477070664816207   9.420597609184465   6.748363381309176

