Random disp. with mag 0.040000 : 8

64 atoms
1 atom types

0.000000   10.800000   xlo xhi
0.000000   10.800000   ylo yhi
0.000000   10.800000   zlo zhi
0.000000    0.000000    0.000000   xy xz yz

Masses

 1 28.085 # Si

Atoms

    1   1  -0.028692723063521  -0.025080731324750  -0.012152553617070
    2   1  -0.038128289200029   0.011879316116210   5.397738272498704
    3   1   0.005737864489441   2.728338848460498   2.672359692855654
    4   1  -0.007959923242215   2.697600376469582   8.139126479893932
    5   1  -0.031930911977812   5.399267089193763   0.024080691477101
    6   1  -0.026315518009332   5.399585891684762   5.369878213429417
    7   1   0.026806042521090   8.078306326245690   2.720268709958926
    8   1  -0.008280181909726   8.130933941316158   8.123969352560934
    9   1   1.324913462830961   1.320587919138949   1.360275950189125
   10   1   1.336816831628109   1.377533887706759   6.775847419589390
   11   1   1.338174223233331   4.017570881292650   4.029788536328866
   12   1   1.323467060137455   4.020283612615740   9.453597140959026
   13   1   1.317166449092610   6.732153167143469   1.335736462857940
   14   1   1.321066353210429   6.729161533304889   6.731872606661379
   15   1   1.367451638511128   9.467923713927375   4.018788130585841
   16   1   1.317155574115662   9.466455077354151   9.434173625885974
   17   1   2.720497645656736   0.020982468697727   2.727195266681535
   18   1   2.694979706283536  -0.029906577380534   8.073915650662082
   19   1   2.735062371497143   2.688884306027855   0.015718506688422
   20   1   2.715373964377792   2.735381365865608   5.410573559892220
   21   1   2.690171349979571   5.392444240263350   2.738030358052192
   22   1   2.682599663607308   5.431549604170917   8.082626146942040
   23   1   2.725836750404953   8.104529310534341   0.030198471395017
   24   1   2.720727995170872   8.076085296930909   5.375537024029903
   25   1   4.055890485749440   1.381058806142823   4.074508217777272
   26   1   4.069933578172954   1.346479696860051   9.415499856130364
   27   1   4.064650458609882   4.083222047326448   1.333217281687421
   28   1   4.076618989299977   4.078782296271347   6.742062189848827
   29   1   4.027191487131138   6.722657846431852   4.031774238590203
   30   1   4.084110112662701   6.746332407948902   9.470568154576542
   31   1   4.023782931269666   9.473781965645566   1.368630174911204
   32   1   4.034662598855103   9.420436984117533   6.772153830776043
   33   1   5.394984396067129  -0.034652936251157   0.019339537904558
   34   1   5.374450723394589   0.026639559232988   5.415413252376196
   35   1   5.435794038375087   2.683527576025805   2.693111889575710
   36   1   5.387673724404065   2.737452420325058   8.106736404213542
   37   1   5.412615712387938   5.398196765790098  -0.037915592403773
   38   1   5.403932768222513   5.372309734876225   5.371403102415069
   39   1   5.391046334234611   8.138740264736938   2.695638376738686
   40   1   5.384474737933285   8.113070137425860   8.134469374021426
   41   1   6.768521448330547   1.320761753544622   1.370051954916004
   42   1   6.775844826121392   1.358811054889678   6.720769702798533
   43   1   6.761865839882484   4.077754049580375   4.076247182244449
   44   1   6.733765392990488   4.086519714436671   9.448342292935791
   45   1   6.711489886913276   6.755306803303747   1.359423854240333
   46   1   6.731178909215780   6.747522362927675   6.714791650759657
   47   1   6.717563925439945   9.430654483341264   4.036822289563766
   48   1   6.752147777617822   9.488474374642600   9.460728911741885
   49   1   8.072750686403623  -0.023830870353209   2.717016595627061
   50   1   8.109966844928813   0.032377143573695   8.078730712842850
   51   1   8.070216519311801   2.720763702353971   0.016787285148333
   52   1   8.126806286148904   2.675364581054246   5.416568619624768
   53   1   8.126961469230746   5.421676063397222   2.679919475790728
   54   1   8.135021373616656   5.398893035334416   8.080705492511294
   55   1   8.115866367105804   8.125140037237687   0.026762603060082
   56   1   8.091931096625975   8.138684918837635   5.393805659610081
   57   1   9.420106041656114   1.324191406461728   4.043654312164136
   58   1   9.470145028756958   1.355137781314379   9.415827188884334
   59   1   9.468105566486749   4.042604133937734   1.384892544008468
   60   1   9.411110004089117   4.042486814096057   6.755578553183790
   61   1   9.426156371756425   6.734200589696146   4.077961760070366
   62   1   9.446913108867241   6.722177363497024   9.421427775705105
   63   1   9.422428680895150   9.474011978269786   1.366224896375322
   64   1   9.481794525183792   9.452728885971457   6.725882343611122

