Random disp. with mag 0.040000 : 2

64 atoms
1 atom types

0.000000   10.800000   xlo xhi
0.000000   10.800000   ylo yhi
0.000000   10.800000   zlo zhi
0.000000    0.000000    0.000000   xy xz yz

Masses

 1 28.085 # Si

Atoms

    1   1  -0.028197768520833  -0.027762610329059   0.005841516768985
    2   1  -0.035359906347730   0.017713359940129   5.394007179068988
    3   1   0.007692586486179   2.733184410287800   2.720967093909353
    4   1  -0.033907698535316   2.713521423859435   8.083646435347251
    5   1  -0.017803090103500   5.428479854533098  -0.021724361176805
    6   1  -0.020525809646357   5.409938361794794   5.367137862163315
    7   1   0.015704888481695   8.094586308833431   2.736387476220955
    8   1   0.027381266577589   8.114170186624683   8.125484741545259
    9   1   1.313821010783926   1.360487493942638   1.363457087727527
   10   1   1.319206864184205   1.324572616785895   6.747712868715382
   11   1   1.363236468762198   4.017344530678820   4.031068116360994
   12   1   1.349019144557278   4.043195626893490   9.410595197891272
   13   1   1.316732808731804   6.771850868323357   1.353979137926813
   14   1   1.378502004650968   6.721957719792409   6.751125278470039
   15   1   1.357366707594572   9.411409002539795   4.057514421750382
   16   1   1.313462536048907   9.437503110215536   9.439567288284556
   17   1   2.672044260067998   0.016736166789201   2.676797040575429
   18   1   2.700029370370709   0.039714830316918   8.095232255220781
   19   1   2.690658568172817   2.662843142370296  -0.011493719263318
   20   1   2.688392863942256   2.730313837421939   5.376625961981436
   21   1   2.736554455589692   5.405311090154648   2.684651902466088
   22   1   2.716678698065969   5.426256423502575   8.074852012890139
   23   1   2.704290979903139   8.138302047077248  -0.010702368016619
   24   1   2.702990867654321   8.064757619195051   5.418682326029520
   25   1   4.062020727016481   1.361108656347062   4.086497943451079
   26   1   4.048277764382104   1.366820884260186   9.413749596454910
   27   1   4.063989940520675   4.013315281174681   1.357649377029227
   28   1   4.061604831053543   4.086895974549880   6.739801227611456
   29   1   4.027768802730282   6.773537128982099   4.073489943108379
   30   1   4.059692522416753   6.714947459915955   9.466654562223521
   31   1   4.070163073759732   9.416870789911741   1.340206844457093
   32   1   4.016028521254462   9.431738107112894   6.760603862504833
   33   1   5.389658753953118  -0.015337945525803   0.035465561566756
   34   1   5.394123826136892  -0.039380086825704   5.403831362986002
   35   1   5.423096174348700   2.668550132748064   2.691198149041816
   36   1   5.381162846385609   2.692004455794999   8.065630930816011
   37   1   5.413914323037148   5.418611513955393  -0.032557689763036
   38   1   5.404917370594507   5.360393959126696   5.402679737445794
   39   1   5.410170787358806   8.075435763321945   2.670114328501329
   40   1   5.436603433511536   8.096738678201309   8.084202771278102
   41   1   6.779746296393213   1.354158095397890   1.323582806857103
   42   1   6.742977309856550   1.314110937693897   6.766206697070587
   43   1   6.769156114476337   4.015046505744808   4.053361029235474
   44   1   6.728318416368622   4.082997239074420   9.443589762508214
   45   1   6.728151328205599   6.755506961509846   1.383050097061123
   46   1   6.768647443047016   6.741154512027059   6.715735875754241
   47   1   6.747926337504986   9.486582922277055   4.033956629982211
   48   1   6.717397395681804   9.453593377315929   9.472894493467567
   49   1   8.087677839967895   0.027435744248721   2.673628721880387
   50   1   8.061314332085280   0.009813248075473   8.102668194183554
   51   1   8.124824628940621   2.731149189182060  -0.003669579166705
   52   1   8.116739551971445   2.686259733475877   5.366369768427183
   53   1   8.086367271433231   5.412999751899415   2.664713243810482
   54   1   8.117498075902619   5.432288990607442   8.084149497633868
   55   1   8.106332551156989   8.115410705665457  -0.036364941176039
   56   1   8.121563587043397   8.103713512206534   5.433484646345955
   57   1   9.427974509240460   1.383248273843620   4.046929162456094
   58   1   9.483647861892594   1.331104502951788   9.439474717041433
   59   1   9.446524259063503   4.040817303476598   1.388776246717565
   60   1   9.444868572289332   4.017231733698532   6.772358648734802
   61   1   9.481509142089433   6.761017992851611   4.072040367472202
   62   1   9.449631641331484   6.768193599825370   9.485621022406518
   63   1   9.456031586553468   9.480771900732506   1.374833648321517
   64   1   9.479801472649410   9.425506480338615   6.739419842982079

