Random disp. with mag 0.040000 : 1

64 atoms
1 atom types

0.000000   10.800000   xlo xhi
0.000000   10.800000   ylo yhi
0.000000   10.800000   zlo zhi
0.000000    0.000000    0.000000   xy xz yz

Masses

 1 28.085 # Si

Atoms

    1   1   0.017020937945839   0.013702374137333  -0.033504217860509
    2   1   0.016627377685346   0.035793398896963   5.406508679336992
    3   1   0.004257374720572   2.690020628922424   2.738500479391622
    4   1   0.017487450628768   2.730281902853493   8.119421519767464
    5   1  -0.010041860598491   5.361319702717540  -0.001730791108414
    6   1   0.014626871240055   5.364110228152984   5.390101570099457
    7   1  -0.017523269871744   8.064467318118508   2.705510311362409
    8   1   0.001405448802286   8.138235667820188   8.111664408257957
    9   1   1.312183345433517   1.340924359000036   1.359355927417369
   10   1   1.322539481229612   1.321575272125386   6.756160742984034
   11   1   1.376811386994562   4.079680937539084   4.049562422316880
   12   1   1.363411163690232   4.013050850282356   9.442590477504117
   13   1   1.353424470470128   6.718273105060470   1.374117983736111
   14   1   1.366847395884888   6.782377617985832   6.766366279524114
   15   1   1.385767050391542   9.446210030672926   4.032497022002278
   16   1   1.357872898596139   9.477909646190573   9.422448791002717
   17   1   2.709821973990543   0.003624713201645   2.738605573187494
   18   1   2.719413576100608  -0.002620329405806   8.065125267932341
   19   1   2.719316741702315   2.676265447386129   0.025759163461290
   20   1   2.699452007300153   2.713049509017061   5.437807539174278
   21   1   2.732820956584093   5.415611077148762   2.716705660093529
   22   1   2.723239402578977   5.373353881520511   8.081293997280305
   23   1   2.672768150794036   8.128753043577699   0.005629287152256
   24   1   2.682157900405941   8.134104745577160   5.389113043988662
   25   1   4.029842962017137   1.340850020796899   4.016683762212095
   26   1   4.025451412497060   1.379094692418166   9.437717259072063
   27   1   4.011152436837223   4.043738950236929   1.342812087077709
   28   1   4.085916359850114   4.059639711503623   6.764734010222746
   29   1   4.046069454158335   6.711455620917712   4.040056074691178
   30   1   4.032617527318738   6.724505893066096   9.424546117091337
   31   1   4.055499423094074   9.412460942422699   1.362671838928921
   32   1   4.033730508695951   9.468451893029322   6.781540946345060
   33   1   5.394883786499402   0.021031320779159   0.033637893895136
   34   1   5.393608873500801  -0.022902600639161   5.432165577657402
   35   1   5.409828733869706   2.678634931901085   2.732356295456174
   36   1   5.397928803378034   2.718359182987532   8.064522534693365
   37   1   5.413683344040337   5.422659157647876   0.029988809088767
   38   1   5.388909579353584   5.365881571991300   5.417689981348230
   39   1   5.432149589506105   8.076388214694845   2.697018810758744
   40   1   5.433421480929442   8.111889727329459   8.081516520984565
   41   1   6.710184288192035   1.351586343703245   1.346508208643090
   42   1   6.719459054572074   1.327333395816565   6.762388531275332
   43   1   6.718020346819347   4.027337533388904   4.042017870613296
   44   1   6.786916067144876   4.064960900149137   9.446342753319428
   45   1   6.785701281924803   6.760705714424727   1.335480835162381
   46   1   6.751984523168916   6.782281196704419   6.773536907339807
   47   1   6.731369907609667   9.482771608891847   4.036623105436335
   48   1   6.763691788885927   9.487474635283336   9.447138771682638
   49   1   8.061087444318053  -0.009001848860281   2.702186258766956
   50   1   8.084409855795439  -0.036242656374001   8.093410822309494
   51   1   8.092733504156440   2.674680882962794   0.030102165214679
   52   1   8.125410601309381   2.730673031635625   5.396330330890176
   53   1   8.096945115613908   5.431255932236612   2.675226336940050
   54   1   8.122741208735880   5.376488850932445   8.076976896500378
   55   1   8.090783854521504   8.089933467295523   0.037599568904828
   56   1   8.106552964610941   8.060987843982609   5.394074602318618
   57   1   9.478793941773256   1.356310020773789   4.077038723250047
   58   1   9.410859441566284   1.343304956477672   9.454815919198973
   59   1   9.480944286136280   4.035726928938110   1.370945896924653
   60   1   9.489712885332935   4.051964404454584   6.754362092808731
   61   1   9.423646306899304   6.722741241960179   4.062745311690221
   62   1   9.467860437753888   6.736730237541281   9.483240309377750
   63   1   9.459910389913517   9.440238171515675   1.387503211547875
   64   1   9.424676258035499   9.419992044986804   6.742369093838774

