Random disp. with mag 0.040000 : 13

64 atoms
1 atom types

0.000000   10.800000   xlo xhi
0.000000   10.800000   ylo yhi
0.000000   10.800000   zlo zhi
0.000000    0.000000    0.000000   xy xz yz

Masses

 1 28.085 # Si

Atoms

    1   1   0.031333393523095  -0.017940581286282  -0.017214935185391
    2   1   0.033567134033445  -0.000545441815180   5.378252586222565
    3   1  -0.006143231080646   2.733861677888386   2.679612565574036
    4   1   0.013564688665168   2.716735063108729   8.133703662770742
    5   1   0.026894920658904   5.424726991323357   0.016286164153843
    6   1  -0.001023152207219   5.374333653917802   5.369337452187568
    7   1  -0.028109254378120   8.076490034164475   2.683964061464365
    8   1  -0.028304614363781   8.110600226739185   8.073799160341784
    9   1   1.357883665388420   1.368821305696399   1.384403579347593
   10   1   1.389433487298391   1.356627060093589   6.748959733686196
   11   1   1.316078011759254   4.030061256616130   4.042806584533974
   12   1   1.345191380261548   4.077771209251192   9.478383747337825
   13   1   1.326659119729849   6.734515367266582   1.321444274526364
   14   1   1.380770769532335   6.755405323652848   6.725021164586877
   15   1   1.338282811221132   9.419438623200410   4.072993689030556
   16   1   1.319799466510511   9.456961643520943   9.475287611521010
   17   1   2.729610939831199   0.023473424054342   2.713122141802242
   18   1   2.676082126441227  -0.032058206074454   8.099545304811606
   19   1   2.712901874521827   2.662691615785438   0.006451829284913
   20   1   2.732101760666843   2.688075397254378   5.420670771912240
   21   1   2.738653897748088   5.392734538350291   2.707286237430730
   22   1   2.736004676240422   5.389708537357797   8.114062328594743
   23   1   2.729898357239923   8.095420925237203  -0.026174802934705
   24   1   2.704499446015177   8.088411299980642   5.361980833551775
   25   1   4.051993492457575   1.381016452342691   4.075179469253643
   26   1   4.055137961096854   1.318157684744345   9.426342690031900
   27   1   4.010255497786243   4.054337533720154   1.348750862294540
   28   1   4.013932842231114   4.033022787831472   6.746693279954535
   29   1   4.087010302090882   6.760215924384782   4.038780711782558
   30   1   4.031697522714150   6.774036112994860   9.476216113314129
   31   1   4.025502084276426   9.481465725372340   1.353124140200624
   32   1   4.059613088898112   9.432085096803510   6.784447710595879
   33   1   5.382127796271451   0.031633142262270  -0.016731068241455
   34   1   5.414607342147006   0.014120297591034   5.365543610877793
   35   1   5.380270866710381   2.734608787944404   2.703604593827291
   36   1   5.415087506133048   2.736711855499778   8.104960526630173
   37   1   5.431355368505575   5.376777131662704  -0.008805637516286
   38   1   5.372435082681302   5.387072868873156   5.374056511143589
   39   1   5.413646803863111   8.093663357927687   2.662937731969439
   40   1   5.424149444988796   8.112080359054916   8.070489506411491
   41   1   6.784210536218922   1.366088696590587   1.363068781642903
   42   1   6.735394920630887   1.368539982375358   6.717705097768481
   43   1   6.776916293487536   4.055085500265779   4.079148770676301
   44   1   6.743989334058651   4.011079406150433   9.457004232244760
   45   1   6.731581984566155   6.749334050968201   1.385501172084393
   46   1   6.735809123286348   6.786197631548091   6.740600505949436
   47   1   6.766976460993542   9.480609216204527   4.069361705903128
   48   1   6.789715944114016   9.450951651448356   9.454662418112216
   49   1   8.077182598120061   0.016867314460487   2.728193259377738
   50   1   8.121471519868795  -0.016720400230118   8.070684440126980
   51   1   8.117764598855297   2.692359636181123   0.035014909227721
   52   1   8.105770950952779   2.666583192953523   5.421213512955641
   53   1   8.088462047647068   5.367989408396737   2.721028496872353
   54   1   8.080819568828179   5.429986272339569   8.118246493669751
   55   1   8.099496178159056   8.085604529370290  -0.037316438588131
   56   1   8.090424935433376   8.138405935419899   5.405770811300630
   57   1   9.434989243968037   1.379191151700716   4.027140562873626
   58   1   9.413372401891907   1.350359278789639   9.433928597585046
   59   1   9.417473461588244   4.033498752033426   1.366423553649994
   60   1   9.428084555797080   4.050171855479547   6.783461676154714
   61   1   9.419530564563541   6.735468493318533   4.028541928843673
   62   1   9.483951181070591   6.770849541888164   9.446448393748513
   63   1   9.417151488329424   9.456483739813009   1.328115384420438
   64   1   9.434206863867663   9.413265749948424   6.751082462125844

