ITEM: TIMESTEP
0
ITEM: NUMBER OF ATOMS
64
ITEM: BOX BOUNDS xy xz yz pp pp pp
0.0000000000000000e+00 1.0800000000000001e+01 0.0000000000000000e+00
0.0000000000000000e+00 1.0800000000000001e+01 0.0000000000000000e+00
0.0000000000000000e+00 1.0800000000000001e+01 0.0000000000000000e+00
ITEM: ATOMS id xu yu zu fx fy fz
     1    0.012654000000000   -0.027298000000000   -0.026357000000000   -0.184759614867491    0.416316346695764    0.013247323545736
     2    0.029264000000000   -0.007671000000000    5.373832000000000   -0.314899354311584    0.290150933441392    0.538830364153154
     3    0.000813000000000    2.731630000000000    2.675528000000000    0.183626024387674   -0.567760400327371   -0.001439943317567
     4    0.002522000000000    2.721802000000000    8.066559000000000    0.029039889588321   -0.095099299711744    0.686008837978724
     5   -0.028871000000000    5.375863000000000   -0.013559000000000    0.108810044343277    0.473025432883999    0.169512151220668
     6   -0.008423000000000    5.362126000000000    5.390273000000000   -0.065547341738629    0.455566342128357    0.473225796728844
     7    0.018706000000000    8.127483000000000    2.722243000000000   -0.404318745783517   -1.064748510360661   -0.354411452436943
     8    0.010006000000000    8.067828000000000    8.121559000000000    0.165233010844859    0.176344836909050   -0.681979365355376
     9    1.359312000000000    1.312541000000000    1.360492000000000   -0.188218847356822    0.453103745362700   -0.324194725674411
    10    1.345890000000000    1.378627000000000    6.777633000000000    0.412315976762050   -0.438750748387739   -0.524116803171721
    11    1.316990000000000    4.036555000000000    4.068154000000000    0.493988315320694    0.062150614337725   -0.453075365821864
    12    1.358359000000000    4.089108000000000    9.449182000000000   -0.114940584893206   -0.267173016959144   -0.167670677874599
    13    1.365220000000000    6.718979000000000    1.370150000000000   -0.432837603037557    0.438334711623080   -0.530387262086886
    14    1.388180000000000    6.746560000000000    6.738579000000000   -0.676386322800258   -0.055602384111599   -0.103680556725647
    15    1.317057000000000    9.436515000000000    4.031754000000000    0.722549343011905    0.182483006645374    0.560810327734992
    16    1.347597000000000    9.440556000000001    9.411205000000001    0.184014287466517    0.071190924953957    0.266237963760250
    17    2.664877000000000   -0.014026000000000    2.713025000000000    0.711542931401650   -0.115362865687525   -0.042445987001281
    18    2.737274000000000   -0.005114000000000    8.113583999999999   -0.668859047471969    0.137826691971394   -0.351357655689249
    19    2.685921000000000    2.735728000000000    0.011194000000000    0.101109123211951   -0.436772833323680   -0.076317522804609
    20    2.719184000000000    2.724703000000000    5.375065000000000   -0.271950963038122   -0.437654987388382    0.303138616075317
    21    2.690081000000000    5.374304000000000    2.670994000000000    0.063043518189544   -0.071307160363178    0.470068708796575
    22    2.697483000000000    5.403998000000000    8.060280000000001    0.428165953558404    0.002374503172967    0.534686652480237
    23    2.694180000000000    8.098119000000001   -0.039530000000000    0.068058400838039   -0.140785527141144    0.489800134701815
    24    2.693160000000000    8.121663000000000    5.432923000000000    0.254891356174751    0.039948309934158   -0.520951934512167
    25    4.056493000000000    1.327378000000000    4.082343000000000   -0.116243284616772    0.195590884857644   -0.489256322948995
    26    4.023546000000000    1.354615000000000    9.420354000000000    0.480282251076023    0.410201248249740    0.569783951310216
    27    4.076272000000000    4.075249000000000    1.333501000000000   -0.308889970778746   -0.534219802518311    0.284553417370465
    28    4.046857000000000    4.014664000000000    6.768479000000000    0.130727850192880    0.610181080411732   -0.465616853871710
    29    4.018195000000000    6.734392000000000    4.031431000000000    0.193065601792129    0.104165444424123    0.398574368388697
    30    4.088112000000000    6.762136000000000    9.449560000000000   -0.591297598125738   -0.483925724992094    0.053903340945411
    31    4.076518000000000    9.420317000000001    1.353963000000000   -0.745327808751291    0.411322239392843   -0.239595674757616
    32    4.073223000000000    9.459800000000000    6.781059000000000   -0.166526783745684    0.128957580803870   -0.554538074086173
    33    5.376767000000000   -0.025736000000000   -0.019946000000000    0.158549312217990    0.205943793846189   -0.079620853813029
    34    5.426357000000000    0.021863000000000    5.420672000000000   -0.222358342314312   -0.281295944784198   -0.061431715060838
    35    5.401722000000000    2.733328000000000    2.722052000000000   -0.025091305706323   -0.379587595020972   -0.031915978959501
    36    5.420371000000000    2.726132000000000    8.077591000000000   -0.044734119684244   -0.470656577758712    0.385209490714339
    37    5.405984000000000    5.361503000000000   -0.009064000000000   -0.023200507472427    0.746196811000384   -0.093170796438837
    38    5.431108000000000    5.412559000000000    5.421784000000000   -0.451033760904513    0.034260087874296   -0.028530789183497
    39    5.375821000000000    8.126616000000000    2.717520000000000    0.308975282590840   -0.587830314634639   -0.037039928469870
    40    5.361352000000000    8.106918000000000    8.107644000000001    0.818226674126477   -0.191506743151896   -0.161957698857029
    41    6.712547000000000    1.336149000000000    1.347670000000000    0.183787545839807   -0.024784305207397    0.145129090237818
    42    6.756268000000000    1.376639000000000    6.720827000000000    0.417169432163674   -0.116121003718565    0.421521664098482
    43    6.776225000000000    4.077221000000000    4.063087000000000   -0.383924362997488   -0.320918212158115    0.164652003594480
    44    6.743821000000000    4.087626000000000    9.437911000000000    0.119283868562264   -0.828452197289209    0.276767862478674
    45    6.721682000000000    6.743117000000000    1.322600000000000    0.347502023912911    0.232410006118084    0.395416802333870
    46    6.782401000000000    6.765421000000000    6.767675000000000   -0.473243337316665   -0.089402647720760    0.085758349148693
    47    6.736580000000000    9.483389000000001    4.032534000000000    0.098004291380688   -0.435018190746709    0.409079883987980
    48    6.762831000000000    9.426546000000000    9.420246000000001   -0.239997198975422    0.024112393735941    0.563178264461819
    49    8.111367000000000   -0.006487000000000    2.737798000000000    0.077680905783510    0.344740621580515   -0.613413833989791
    50    8.090437000000000   -0.014198000000000    8.136151999999999    0.222152071305894    0.204340186061047   -0.815351666778835
    51    8.088819000000001    2.716277000000000    0.034786000000000   -0.365998318818683   -0.484685439470031   -0.558742622200820
    52    8.132311000000000    2.709133000000000    5.378261000000000   -0.298238210406384   -0.291380807252456   -0.070600271331586
    53    8.082719000000001    5.399778000000000    2.736074000000000    0.219067167075691    0.155989434018393   -0.937422868391741
    54    8.083703000000000    5.363742000000000    8.104447000000000    0.428993052309415    0.572035959000611   -0.219829513438843
    55    8.132504000000001    8.119576000000000    0.012659000000000   -0.256052625826589   -0.295814475779520   -0.087494408400780
    56    8.084984000000000    8.067125000000001    5.382861000000000    0.180501076339137    0.600790895103771    0.044512052633701
    57    9.480067999999999    1.373099000000000    4.037258000000000    0.010318369853115   -0.234103095635132    0.008750181138142
    58    9.431024000000001    1.373054000000000    9.423384000000000    0.212026524402951   -0.041843846353342    0.425989595830062
    59    9.444559000000000    4.015330000000000    1.330806000000000   -0.129302980642814    0.720378429905470    0.367613370897639
    60    9.430249000000000    4.015306000000000    6.752492000000000    0.124730689998462    0.475308427266422   -0.072127116843528
    61    9.434635000000000    6.716145000000000    4.064758000000000    0.343983735831539    0.357951599738622   -0.204578929396986
    62    9.453170999999999    6.762980000000000    9.412298000000000   -0.309288221517967   -0.448623356425052    0.598322912131696
    63    9.485398000000000    9.443012000000000    1.367266000000000   -0.266986792491072    0.274096035569226   -0.053029759456698
    64    9.477071000000000    9.420598000000000    6.748363000000000   -0.260961945308475    0.223398455411859   -0.096988549678047
