ITEM: TIMESTEP
0
ITEM: NUMBER OF ATOMS
64
ITEM: BOX BOUNDS xy xz yz pp pp pp
0.0000000000000000e+00 1.0800000000000001e+01 0.0000000000000000e+00
0.0000000000000000e+00 1.0800000000000001e+01 0.0000000000000000e+00
0.0000000000000000e+00 1.0800000000000001e+01 0.0000000000000000e+00
ITEM: ATOMS id xu yu zu fx fy fz
     1    0.028237000000000    0.001919000000000   -0.028267000000000   -0.623581525920354    0.244736080209742    0.372987873545950
     2   -0.005283000000000    0.039249000000000    5.394377000000000   -0.044180417870165   -0.562891962329604    0.214246256352462
     3    0.038790000000000    2.705959000000000    2.692266000000000   -0.420167468446611    0.060598225624377    0.299141339231509
     4    0.009692000000000    2.673999000000000    8.128810000000000   -0.111776008053992    0.193687684953534   -0.780658340783563
     5    0.012206000000000    5.382697000000000    0.033936000000000    0.091485758849155   -0.117990329786197   -0.334450770159290
     6   -0.020493000000000    5.383000000000000    5.429850000000000    0.386230489399695    0.314642163045115   -0.614683437841619
     7   -0.022377000000000    8.068349000000000    2.709872000000000    0.608959771669032    0.750401813789118   -0.325311392580019
     8   -0.036235000000000    8.106158000000001    8.115783000000000    0.248585452684061   -0.011520663993894   -0.250325256183932
     9    1.357957000000000    1.379315000000000    1.323975000000000    0.123849200667069   -0.373277407710548    0.145709991558699
    10    1.374780000000000    1.319877000000000    6.741137000000000   -0.105062346086033    0.274261276175164    0.386959048264051
    11    1.381910000000000    4.055391000000000    4.073510000000000   -0.229036847567586    0.170511934747347   -0.215884967476163
    12    1.353091000000000    4.014988000000000    9.430904999999999    0.154022348754218    0.555197176984446    0.286192501047181
    13    1.383243000000000    6.762760000000000    1.331776000000000   -0.622351668512936   -0.424931427718145    0.585770055481347
    14    1.319108000000000    6.764691000000000    6.729266000000000    0.270688505056501    0.110635934174704    0.244137637272599
    15    1.354876000000000    9.459568000000001    4.088531000000000   -0.266163686099411   -0.016392459288246   -0.612858205698675
    16    1.338056000000000    9.481662999999999    9.428673000000000    0.064010806043076   -0.668891828743383    0.166095401653486
    17    2.722274000000000   -0.024266000000000    2.677306000000000   -0.681644494908488    0.394752610294571    0.289088931658683
    18    2.718575000000000   -0.018636000000000    8.130127999999999    0.173493203007887    0.255357660651187   -0.436708658405849
    19    2.731648000000000    2.723560000000000    0.006583000000000   -0.178204664443187   -0.271312429797078   -0.296981251605504
    20    2.705114000000000    2.718437000000000    5.435127000000000   -0.081695292760854   -0.710314404746400   -0.660468935556988
    21    2.734819000000000    5.416295000000000    2.688949000000000   -0.380450581914422   -0.201233437162989    0.136365753324567
    22    2.707114000000000    5.438360000000000    8.108825000000000   -0.307122831966343   -0.297030791591917   -0.248826510733787
    23    2.666245000000000    8.082464999999999    0.012373000000000    0.462691697443043    0.752589036130096   -0.479515864788092
    24    2.723394000000000    8.103612999999999    5.367756000000000   -0.598544157405879   -0.205677214295178    0.341718147311071
    25    4.053884000000000    1.312268000000000    4.037303000000000    0.011711535321629    0.479707674363211    0.140072354176353
    26    4.086112000000000    1.343410000000000    9.465890000000000   -0.312331916242563    0.237853218392318   -0.187040497910477
    27    4.049229000000000    4.020578000000000    1.377088000000000    0.177664708421234    0.785797722164842   -0.491955702943509
    28    4.022577000000000    4.021190000000000    6.745765000000000    0.513511546722959    0.654896643202044    0.530636014834746
    29    4.029967000000000    6.776662000000000    4.027913000000000    0.700644533426099   -0.298248456925544    0.122584408174157
    30    4.040606000000000    6.787818000000000    9.440970000000000    0.261479089670241   -0.202186608933952    0.268222481625864
    31    4.047117000000000    9.486124000000000    1.333067000000000   -0.010304668283983   -0.730340263335591   -0.134515734913326
    32    4.029825000000000    9.428153999999999    6.723247000000000    0.135649984675710    0.085091312285320    0.503387104880648
    33    5.394938000000000   -0.031499000000000   -0.024128000000000    0.320062744202107    0.199075350164668    0.079062141533716
    34    5.379516000000000   -0.032443000000000    5.411306000000000    0.163025869438885    0.503410734923337    0.098184495042376
    35    5.391991000000000    2.701930000000000    2.660857000000000    0.398936766312452   -0.321500685092216    0.734450085951091
    36    5.419240000000000    2.725295000000000    8.124290000000000   -0.369073498978121   -0.238521902407956   -0.202672335069544
    37    5.436242000000000    5.414287000000000   -0.009079000000000   -0.631671216123851   -0.255242522794973   -0.052937890814395
    38    5.407660000000000    5.403854000000000    5.439070000000000   -0.454392335277192   -0.191707128388329   -0.661086101224290
    39    5.396627000000000    8.139339000000000    2.693592000000000    0.019679934707766   -0.518337162258542   -0.331218433151552
    40    5.411732000000000    8.135052000000000    8.115289000000001   -0.333143437562870   -0.457696676318228   -0.509883685529275
    41    6.745916000000000    1.344448000000000    1.310598000000000   -0.222809272512575   -0.211812132818681    0.388641346393514
    42    6.739541000000000    1.352023000000000    6.788555000000000   -0.252761321518532   -0.031237962503707   -0.465799953008227
    43    6.762252000000000    4.084273000000000    4.033408000000000   -0.171023722933194   -0.346956325483748    0.121463080782032
    44    6.764765000000000    4.019610000000000    9.471411000000000    0.064068467273828    0.353613767993408    0.045903529195216
    45    6.771285000000000    6.719849000000000    1.334576000000000   -0.258934274542351    0.692635210184044    0.178642215283110
    46    6.729048000000000    6.720262000000000    6.766633000000000    0.265340173473268    0.585911876258085    0.084614413419310
    47    6.711970000000000    9.444167000000000    4.060940000000000    0.505131807979736    0.349915109642789   -0.263872782588755
    48    6.740540000000000    9.456314000000001    9.411651000000001    0.670312376627059   -0.029253036449572    0.553020814165318
    49    8.113939000000000    0.035110000000000    2.686847000000000   -0.618237794762641   -0.548886153242368   -0.011202736404496
    50    8.105672000000000    0.039295000000000    8.104872000000000   -0.159109226848523   -0.353325621865182    0.032067522984250
    51    8.100457000000000    2.689494000000000    0.038593000000000    0.170649981348647    0.147693342348645   -0.354623785852213
    52    8.079472000000001    2.666243000000000    5.406247000000000   -0.008781244346234    0.328794125888336   -0.242014414551560
    53    8.113600000000000    5.407347000000000    2.663107000000000   -0.049682540983268    0.274806293364529    0.848061671551861
    54    8.077173000000000    5.368837000000000    8.089618000000000    0.334918678542017    0.107320732429110    0.169447510881535
    55    8.133041000000000    8.078431000000000    0.006560000000000   -0.443700140947127    0.061505693599401   -0.437641757411202
    56    8.069970000000000    8.126348999999999    5.398028000000000    0.244920556378306   -0.434960646089827    0.113634499333797
    57    9.426525000000000    1.317817000000000    4.046371000000000    0.423577629661844    0.755351029096574   -0.048343810061019
    58    9.423686999999999    1.376527000000000    9.435718000000000    0.359768964970866   -0.189144698676237    0.511524926156819
    59    9.417298000000001    4.063649000000000    1.368555000000000    0.755711527334199   -0.422737138954082   -0.118894037264058
    60    9.442156000000001    4.061862000000000    6.712613000000000   -0.149858194950845   -0.684717165310165    0.596686866368988
    61    9.484833999999999    6.769393000000000    4.046759000000000   -0.719856248853206   -0.428901619777825    0.401404227350353
    62    9.470352000000000    6.715600000000000    9.451551000000000   -0.195606581757986   -0.105806424958755    0.021422723671118
    63    9.410512000000001    9.448505000000001    1.343796000000000    0.710931916072966    0.135018189630574    0.086628671094206
    64    9.419822999999999    9.464010999999999    6.772205000000000    0.219543603400035    0.047215067192690   -0.327798790989178
