ITEM: TIMESTEP
0
ITEM: NUMBER OF ATOMS
64
ITEM: BOX BOUNDS xy xz yz pp pp pp
0.0000000000000000e+00 1.0800000000000001e+01 0.0000000000000000e+00
0.0000000000000000e+00 1.0800000000000001e+01 0.0000000000000000e+00
0.0000000000000000e+00 1.0800000000000001e+01 0.0000000000000000e+00
ITEM: ATOMS id xu yu zu fx fy fz
     1   -0.014654000000000    0.018167000000000    0.032484000000000    0.294156632143054    0.057409057509416   -0.613744503200815
     2   -0.021594000000000   -0.029285000000000    5.383384000000000    0.148591737719315    0.192038819099095    0.042116834587533
     3    0.029398000000000    2.725447000000000    2.709393000000000   -0.466396518473581   -0.609279929794262   -0.812989217817046
     4   -0.038622000000000    2.692673000000000    8.092606999999999    0.477248216401695    0.380636482114819    0.005659708410226
     5   -0.006429000000000    5.432453000000000    0.022483000000000    0.292380769830840   -0.065121755172655   -0.539753516790065
     6   -0.031798000000000    5.377562000000000    5.390758000000000    0.704378362375367    0.565553873363905   -0.070440602051576
     7    0.019296000000000    8.098815000000000    2.735018000000000   -0.371386200671067    0.122083273101906   -0.795988876399249
     8    0.030696000000000    8.106996000000001    8.124674000000001   -0.311452197630708   -0.050020678275291   -0.315950872005095
     9    1.377699000000000    1.327821000000000    1.331537000000000    0.029951346785948    0.363810722022073    0.451236019139014
    10    1.318982000000000    1.347099000000000    6.775089000000000    0.093990103149706   -0.103824792386397   -0.564987006518742
    11    1.322218000000000    4.042881000000000    4.022117000000000    0.515423369339592    0.426798654479108    0.480915150616148
    12    1.381004000000000    4.035659000000000    9.429190000000000   -0.768108934863729    0.143248725185255    0.361450071033527
    13    1.357597000000000    6.759116000000000    1.388199000000000    0.163691504330501    0.064189220319009   -0.397965925552719
    14    1.365680000000000    6.781260000000000    6.730586000000000   -0.449874510186622   -0.547820695535513    0.170494997649130
    15    1.352031000000000    9.422839000000000    4.020706000000000    0.287190284511818    0.305247871632150    0.825976297527010
    16    1.347641000000000    9.486241000000000    9.433236000000001   -0.174021492901146   -0.396709806834461    0.804258519838874
    17    2.714168000000000   -0.033440000000000    2.716765000000000   -0.114330133664808    0.622116120339745    0.091622543295349
    18    2.669344000000000   -0.025452000000000    8.103526000000000    0.440455686530466    0.592505226330939   -0.266583879362718
    19    2.710869000000000    2.734530000000000    0.017017000000000   -0.028379631338616   -0.235164851106049   -0.048103165033489
    20    2.673624000000000    2.729800000000000    5.395963000000000    0.136173829489572   -0.403229561154762    0.213005199523203
    21    2.727642000000000    5.409871000000000    2.727175000000000   -0.632291795189235   -0.444395530509007   -0.509601340172326
    22    2.669344000000000    5.383459000000000    8.080337999999999    0.246908783678951    0.342753870505120    0.100897211817743
    23    2.725273000000000    8.130314000000000    0.006507000000000   -0.312160955752290   -0.294032688254580   -0.112337222274909
    24    2.725985000000000    8.077465000000000    5.420420000000000   -0.176302569342598    0.165310566972225   -0.649947545136944
    25    4.083395000000000    1.349225000000000    4.072004000000000   -0.917677179439611    0.222373325013299   -0.137839797095748
    26    4.018507000000000    1.374101000000000    9.444773000000000    0.213288493823331   -0.127051199261020   -0.162308704526121
    27    4.068063000000000    4.085586000000000    1.347284000000000   -0.373143704681446   -0.591910273976429    0.519788648857440
    28    4.046299000000000    4.039310000000000    6.788367000000000    0.085114349122822    0.200008969715800   -0.700442227266214
    29    4.040880000000000    6.716854000000000    4.029550000000000    0.225717386427748    0.630773010037880    0.505387511245297
    30    4.045240000000000    6.711312000000000    9.458978000000000   -0.067807044744222    0.361475143054357   -0.219746551821777
    31    4.046668000000000    9.455036000000000    1.389542000000000    0.232618143645387    0.115599355347692   -0.649042865164589
    32    4.025830000000000    9.419592000000000    6.759547000000000    0.361844047363256    0.339711433359063    0.042330527139963
    33    5.371279000000000    0.009414000000000   -0.026200000000000    0.262256894232411    0.043448231280472    0.294980839018782
    34    5.361812000000000    0.004401000000000    5.388942000000000    0.646986998383055   -0.373927877251926    0.578319075308026
    35    5.378257000000000    2.704839000000000    2.733224000000000    0.211850879052092    0.073665610177902   -0.454875401348264
    36    5.423398000000000    2.694269000000000    8.068066999999999   -0.215035522846221   -0.135647896116257    0.481400766348520
    37    5.377868000000000    5.369377000000000    0.013131000000000    0.629973385747566    0.473612936389370   -0.312141256002492
    38    5.384982000000000    5.433513000000000    5.384147000000000    0.398698890621374   -0.595808334270349    0.350580832209061
    39    5.360813000000000    8.092135000000001    2.698409000000000    0.523545692564628    0.150391646438850    0.372941998925840
    40    5.426497000000000    8.082953000000000    8.075355999999999   -0.590079861521100   -0.120253868365199    0.334609614011973
    41    6.751616000000000    1.361081000000000    1.388401000000000   -0.291871614970027   -0.064431775728463   -0.584382673763399
    42    6.763029000000000    1.326722000000000    6.779805000000000    0.061474335485645    0.122535196157809   -0.725070414505717
    43    6.760276000000000    4.052949000000000    4.011455000000000   -0.044070520798709    0.145971442373678    0.588565828901795
    44    6.737632000000000    4.017332000000000    9.469488999999999    0.273235326468505    0.213003200746713   -0.186672771424463
    45    6.718649000000000    6.768634000000000    1.366429000000000    0.297959665038760   -0.373993686415079   -0.137446438139586
    46    6.767003000000000    6.735230000000000    6.783056000000000   -0.255557993077137    0.380631740844206   -1.098957047182174
    47    6.776632000000000    9.439477999999999    4.077929000000000   -0.641306942459012    0.243655167234927   -0.489973028199730
    48    6.729509000000000    9.421004000000000    9.431578999999999    0.033146105304430    0.442864945377268    0.211916143038287
    49    8.092104000000001   -0.021324000000000    2.667092000000000   -0.052567791044836    0.177472739746180    0.429398747475477
    50    8.104463000000001   -0.035253000000000    8.081633999999999   -0.046732437078064    0.113156017233176    0.384174479561917
    51    8.125019999999999    2.671199000000000   -0.012022000000000   -0.223680282331335    0.018917491465404    0.090170831004915
    52    8.129761000000000    2.706345000000000    5.374038000000000   -0.326074651273825   -0.084107215837364    0.247542687183887
    53    8.131850000000000    5.379081000000000    2.687836000000000   -0.251089463923760    0.541323404130811   -0.041154793997942
    54    8.080753000000000    5.429518000000000    8.081072000000001    0.295159365240597   -0.846641441456677    0.551575760983623
    55    8.072397000000000    8.082416000000000   -0.022997000000000    0.138599902998604    0.227393888619610    0.351975525787711
    56    8.117030000000000    8.134652000000001    5.389549000000000   -0.170605581102592   -0.928067010617326    0.116803647956428
    57    9.448739000000000    1.349192000000000    4.010028000000000    0.121334191940062   -0.103269413749509    0.150032029215828
    58    9.470233000000000    1.342305000000000    9.416364000000000   -0.419490575049179   -0.292883109105505    0.326051541314116
    59    9.450970999999999    4.065145000000000    1.312991000000000    0.183074609365190   -0.358364185412810    0.176253493646201
    60    9.470288999999999    4.082818000000000    6.739449000000000   -0.632864468359260   -0.416824658594318    0.261738871529991
    61    9.485583000000000    6.767890000000000    4.046285000000000   -0.602341874440581   -0.256074521762266    0.094733015306714
    62    9.425096999999999    6.764166000000000    9.422086000000000    0.363583035360263   -0.126977170688767    0.315876620723786
    63    9.452766000000000    9.486031000000001    1.332851000000000   -0.139898808749229   -0.897578570425541    0.081566738625243
    64    9.425871000000001    9.418331999999999    6.746138000000000    0.676598933483417    0.261725120338546    0.192099314046751
