ITEM: TIMESTEP
0
ITEM: NUMBER OF ATOMS
64
ITEM: BOX BOUNDS xy xz yz pp pp pp
0.0000000000000000e+00 1.0800000000000001e+01 0.0000000000000000e+00
0.0000000000000000e+00 1.0800000000000001e+01 0.0000000000000000e+00
0.0000000000000000e+00 1.0800000000000001e+01 0.0000000000000000e+00
ITEM: ATOMS id xu yu zu fx fy fz
     1   -0.033558000000000    0.021748000000000    0.000938000000000    0.346559810291358   -0.700845145433933    0.392534489193332
     2   -0.012987000000000    0.028058000000000    5.425379000000000   -0.004144075689865   -0.411331581397507   -0.339122437893284
     3   -0.030926000000000    2.698565000000000    2.725328000000000    0.489577147298773   -0.107841640373364   -0.229425473994890
     4    0.002884000000000    2.729680000000000    8.126659999999999   -0.127288586647968   -0.128237015040013   -0.173832388641981
     5   -0.010737000000000    5.438494000000000   -0.001707000000000    0.064159811153742   -0.073353921938755    0.156399491165759
     6    0.002238000000000    5.414668000000000    5.362854000000000   -0.190640739787448   -0.018316282277134    0.399038964160631
     7    0.034347000000000    8.082808000000000    2.688832000000000   -0.743598673225999    0.213689133889787    0.022297156760999
     8    0.030298000000000    8.075835000000000    8.090096000000001   -0.127658669499660    0.418034906960499    0.495757598331246
     9    1.356733000000000    1.323056000000000    1.321213000000000   -0.157173743798747    0.417622738010897    0.507583128241847
    10    1.338847000000000    1.378259000000000    6.723980000000000    0.132442415887116   -0.147852073638381    0.688387558585512
    11    1.369462000000000    4.038532000000000    4.083011000000000   -0.345943921280189    0.156055812629728   -0.515189229977297
    12    1.347879000000000    4.061311000000000    9.488308999999999    0.060387409829136    0.284213573945044   -0.363285770553493
    13    1.375230000000000    6.775846000000000    1.367189000000000   -0.064055607741358   -0.750337980931003    0.004504552587325
    14    1.358233000000000    6.735124000000000    6.786207000000000   -0.196294591273478    0.070613069260397   -0.812199663153915
    15    1.321385000000000    9.439633000000001    4.024044000000000    0.056040170413254    0.348371925534291    0.529812300479759
    16    1.355364000000000    9.461392999999999    9.487966000000000   -0.125583209926268   -0.096494919916386   -0.251679541104545
    17    2.678056000000000    0.006264000000000    2.732852000000000    0.383580467254565   -0.025833997776802   -0.342604284736257
    18    2.724604000000000    0.000745000000000    8.131530000000000   -0.817728499886527   -0.142763254206056   -0.573224864475653
    19    2.700993000000000    2.734036000000000    0.020990000000000   -0.091540767265902   -0.559421733792784   -0.325585828345937
    20    2.694342000000000    2.729141000000000    5.426810000000000    0.407930566628745   -0.379570382094685   -0.274965643004851
    21    2.729164000000000    5.392414000000000    2.726305000000000   -0.345466999839884    0.174118602688162    0.053391629275628
    22    2.696871000000000    5.403794000000000    8.060304000000000    0.394338408578480   -0.207186593524215    0.879488411167419
    23    2.689954000000000    8.100398999999999    0.038716000000000    0.525709647851424    0.189260328590394   -0.431289251883572
    24    2.662119000000000    8.096190000000000    5.387731000000000    0.302231629051065    0.243285504758790    0.304449129744834
    25    4.066980000000000    1.381205000000000    4.031617000000000   -0.099174330297995   -0.102733743089952    0.281087194717004
    26    4.025006000000000    1.336552000000000    9.421813999999999    0.274829599602341    0.515833772351911    0.779702531419532
    27    4.016204000000000    4.069617000000000    1.341456000000000    0.654881351199209    0.143159866483345    0.080253176705879
    28    4.062530000000000    4.077636000000000    6.723937000000000    0.072288356399784   -0.043174276876704    0.183831170537958
    29    4.058862000000000    6.745630000000000    4.088760000000000    0.048098373523498    0.353865387059774   -0.413350648014481
    30    4.086767000000000    6.764085000000000    9.457055000000000   -0.584638866824332    0.093518632656225   -0.316337467054305
    31    4.087674000000000    9.443956999999999    1.362005000000000   -0.689055569743152    0.218045385643339    0.203071653022742
    32    4.052982000000000    9.489564000000000    6.755077000000000   -0.140662266446507   -0.391628514361424   -0.317008491031975
    33    5.370517000000000    0.009843000000000    0.025177000000000    0.290140625935638    0.136271748917336   -0.399883819009426
    34    5.432549000000000    0.017931000000000    5.414801000000000   -0.440264113034144    0.061809769981396   -0.229522798006317
    35    5.415323000000000    2.726778000000000    2.674542000000000   -0.245207588858411    0.285968277919986    0.269222902889256
    36    5.360020000000000    2.700968000000000    8.100834000000001    0.283750263262466    0.354279420677065    0.135036874411234
    37    5.408690000000000    5.438948000000000   -0.002752000000000    0.023421049241049   -0.511934049273411    0.086137930328191
    38    5.433881000000000    5.408295000000000    5.380422000000000   -0.046976187433956    0.122227161663574    0.431049350367986
    39    5.425429000000000    8.130476000000000    2.695042000000000   -0.203559059015045   -0.688833990739630    0.136561774162857
    40    5.415953000000000    8.102112999999999    8.063380000000000   -0.427339667019244    0.294516877075483    0.399700188117115
    41    6.735571000000000    1.387112000000000    1.346189000000000    0.131955755360796   -0.443361123051878    0.013048746926918
    42    6.729519000000000    1.381231000000000    6.764323000000000    0.291810349925209   -0.235717212346341    0.229204038304721
    43    6.767205000000000    4.086110000000000    4.049700000000000    0.163512868219688   -0.522227118843056   -0.115334856334287
    44    6.774527000000000    4.039293000000000    9.479729000000001   -0.601764571277337    0.511628638693968   -0.738894165650836
    45    6.775621000000000    6.765044000000000    1.323218000000000   -0.332799339936836    0.054734318361539    0.359558833757860
    46    6.757853000000000    6.759190000000000    6.788130000000000    0.062400531641570   -0.276552280575953   -0.523335318227998
    47    6.725744000000000    9.426774999999999    4.071731000000000    0.547308039190585    0.450791870176945    0.039805258524054
    48    6.723704000000000    9.469014000000000    9.426612000000000    0.165361710247864    0.140285490907453    0.248572883583534
    49    8.103125000000000    0.033206000000000    2.722081000000000   -0.519406171123248   -0.487311972520410   -0.262463515425237
    50    8.124204000000001    0.025400000000000    8.119210000000001   -0.272275221251972   -0.350817839072571   -0.374274411050715
    51    8.067048000000000    2.703271000000000   -0.022439000000000    0.720666849650617   -0.364678203103012    0.315285687776643
    52    8.108501000000000    2.662474000000000    5.410933000000000   -0.370592312514467    0.742043836769926    0.074827385771647
    53    8.088870000000000    5.438385000000000    2.698344000000000    0.380989729426915   -0.386367994217895   -0.236638091767086
    54    8.129381000000000    5.424980000000000    8.089380000000000   -0.442202794177726   -0.264389741213946    0.449437993753385
    55    8.086209000000000    8.133886000000000    0.016171000000000   -0.052762361163230    0.044776650377511   -0.547581394629894
    56    8.104839000000000    8.104981000000000    5.439393000000000   -0.198387724515050   -0.031034417740031   -0.300905477205229
    57    9.411549000000001    1.350421000000000    4.061015000000000    0.605976055511502   -0.036402811238814    0.055335262571799
    58    9.467196000000000    1.318935000000000    9.468418000000000   -0.279863312298890    0.830116781332733   -0.325677770933200
    59    9.464732000000000    4.023411000000000    1.324001000000000   -0.257023939823782    0.415543507090282    0.251763307425838
    60    9.417078999999999    4.072555000000000    6.752742000000000    0.594934835211241   -0.272088084401825   -0.266042077339293
    61    9.426345000000000    6.782164000000000    4.047563000000000    0.285038973761749   -0.100281981986297   -0.024398230961075
    62    9.426707000000000    6.782401000000000    9.447247000000001    0.269035668285723    0.061887463765687    0.142174242182364
    63    9.415336000000000    9.438276000000000    1.366153000000000    0.453955339333000    0.344114626792435    0.190937782965026
    64    9.467691000000000    9.414776000000000    6.756802000000000    0.057759673604784    0.568236796131111    0.234802330437773
