ITEM: TIMESTEP
0
ITEM: NUMBER OF ATOMS
64
ITEM: BOX BOUNDS xy xz yz pp pp pp
0.0000000000000000e+00 1.0800000000000001e+01 0.0000000000000000e+00
0.0000000000000000e+00 1.0800000000000001e+01 0.0000000000000000e+00
0.0000000000000000e+00 1.0800000000000001e+01 0.0000000000000000e+00
ITEM: ATOMS id xu yu zu fx fy fz
     1    0.039395000000000    0.004750000000000    0.005047000000000   -0.616496412347613   -0.271828084769540   -0.383051361961285
     2   -0.001075000000000   -0.033838000000000    5.378696000000000    0.052362004895268    0.099090422411698    0.164767435790715
     3    0.030645000000000    2.711770000000000    2.722855000000000   -0.701343397681187   -0.192834792369869   -0.517291319557886
     4    0.036544000000000    2.688587000000000    8.111589000000000   -0.639981157252650   -0.288442413081875   -0.390278343207706
     5    0.010488000000000    5.363116000000000    0.011385000000000    0.002940965480579    0.958902518780531   -0.297570602243633
     6   -0.032405000000000    5.376811000000000    5.403497000000000    0.629123217197494    0.467041898308291    0.096671316183969
     7   -0.015246000000000    8.096424000000001    2.736807000000000    0.323819129706592   -0.024401060564212   -0.193014932525281
     8   -0.030255000000000    8.098592999999999    8.126127000000000    0.746175107743265   -0.057291531508676   -0.080992758100098
     9    1.310234000000000    1.346313000000000    1.352244000000000    0.521439911546738    0.139924964079148    0.236423455156576
    10    1.352674000000000    1.341221000000000    6.711067000000000   -0.046130573389481    0.148697751960464    0.043208477089164
    11    1.320441000000000    4.027352000000000    4.064606000000000    0.300975655085980    0.518401692245879    0.114202158696153
    12    1.314431000000000    4.031705000000000    9.450376000000000    0.591556214452482    0.281601283526986   -0.058860180039944
    13    1.367739000000000    6.763069000000000    1.383385000000000   -0.541250778610179   -0.296142077303149   -0.081987197123671
    14    1.383397000000000    6.767356000000000    6.763543000000000   -0.859268345705451   -0.255017509567424   -0.066421988281590
    15    1.387779000000000    9.451058000000000    4.036899000000000   -0.440227545554524   -0.402675554921932    0.416546217407841
    16    1.385335000000000    9.452510999999999    9.431423000000001   -0.228708071306399   -0.065485308807798    0.203397626266011
    17    2.673782000000000    0.008122000000000    2.729097000000000    0.409066879753759   -0.012414093636544   -0.790059306834737
    18    2.700341000000000   -0.000711000000000    8.060008000000000    0.095006510716942    0.065415739044638    0.166682305937287
    19    2.662330000000000    2.703274000000000    0.013047000000000    0.150264223126336   -0.299121896849254   -0.181227178821858
    20    2.708492000000000    2.732172000000000    5.377800000000000   -0.043919459370239   -0.445477670466220    0.204786889878046
    21    2.667620000000000    5.381587000000000    2.714578000000000    0.545000925278635    0.028110774714783    0.103268404899600
    22    2.681720000000000    5.389924000000000    8.065878000000000    0.419594901411771   -0.203896439219693    0.562892698436767
    23    2.685755000000000    8.088080000000000    0.035426000000000    0.144083547687879    0.101130490322893   -0.442311271845337
    24    2.704919000000000    8.095057000000001    5.439387000000000   -0.147127272185863    0.003255916759627   -0.680517344582168
    25    4.016021000000000    1.330619000000000    4.058356000000000    0.598045710628873    0.338403553785912   -0.120790506994106
    26    4.027572000000000    1.324608000000000    9.471266000000000   -0.030032749182517    0.137746352263658   -0.071893550888916
    27    4.033557000000000    4.023750000000000    1.324691000000000    0.257816133828330    0.229262612123236    0.457060646664295
    28    4.071568000000000    4.019501000000000    6.735694000000000   -0.102555534090987    0.454353481365931    0.111029037768786
    29    4.063808000000000    6.783680000000000    4.066582000000000   -0.562265384209379   -0.661684773966736    0.043687034574563
    30    4.045920000000000    6.737829000000000    9.487883999999999   -0.159527635919706    0.141803154748796   -0.581467648154199
    31    4.051577000000000    9.410449000000000    1.355763000000000   -0.005519801974913    0.742380457470361    0.023911067063954
    32    4.023729000000000    9.430949999999999    6.726614000000000    0.895299473528719    0.394374607156053    0.394724849258588
    33    5.430795000000000   -0.008879000000000   -0.023934000000000   -0.399511319731059   -0.251041091732924    0.242807077474112
    34    5.435372000000000    0.009246000000000    5.383772000000000   -0.713979672113929    0.080321111195276    0.360410484035344
    35    5.438058000000000    2.696424000000000    2.711782000000000   -0.669907879595606   -0.347541239835658   -0.376911008534648
    36    5.375502000000000    2.698385000000000    8.131579000000000    0.126453667060446   -0.155114188665237   -0.034109436639807
    37    5.398557000000000    5.433556000000000    0.021724000000000    0.018007136911571   -0.588589570736099   -0.166884543448687
    38    5.407830000000000    5.437875000000000    5.410208000000000   -0.294792306316105   -0.752015876404291   -0.499339016022281
    39    5.374603000000000    8.092670000000000    2.730021000000000    0.355587982621301    0.198572950263364   -0.364203803864612
    40    5.435916000000000    8.085081000000001    8.090648000000000   -0.805906465237970    0.058020215740078    0.170503172063906
    41    6.763325000000000    1.341819000000000    1.313183000000000   -0.064383858777356   -0.172219078794727    0.646314017229362
    42    6.728159000000000    1.382093000000000    6.740357000000000    0.457348531876856   -0.156805091766603    0.203863828258229
    43    6.749530000000000    4.059997000000000    4.011272000000000    0.159555312366357    0.150624200509650    0.525806744731497
    44    6.762817000000000    4.070937000000000    9.418419000000000   -0.419026566517469   -0.233568458302398    0.656729715567626
    45    6.731560000000000    6.784361000000000    1.341093000000000    0.186916252328624   -0.179043355120822    0.304488860248397
    46    6.718524000000000    6.726841000000000    6.741461000000000    0.650364477828611    0.355391856830533    0.180850485506720
    47    6.714527000000000    9.442211000000000    4.066763000000000    0.697306063032237   -0.141428159236678   -0.098795494738746
    48    6.761132000000000    9.411587000000001    9.450707000000000   -0.149727596581619    0.410661955432094   -0.252700473763943
    49    8.112958000000001   -0.003631000000000    2.737668000000000   -0.341587085731693   -0.239620750377992   -0.548784805966917
    50    8.106277000000000   -0.039331000000000    8.103700000000000   -0.308499142046335    0.410550024977084   -0.248039149839697
    51    8.079356000000001    2.716525000000000    0.030012000000000    0.310659106053645   -0.045048296855207   -0.722905579335604
    52    8.128118000000001    2.726423000000000    5.389452000000000   -0.106849352335656   -0.173698938969498    0.007523086485148
    53    8.097666000000000    5.387452000000000    2.662091000000000   -0.025926546167663    0.363565011456254    0.024782411486229
    54    8.076128000000001    5.378370000000000    8.076288000000000    0.241316140827710    0.434850801931698    0.040862141700881
    55    8.079064000000001    8.084574000000000   -0.030393000000000    0.570336377548025    0.155477833317472    0.603799440775573
    56    8.109147999999999    8.098576000000000    5.438914000000000   -0.094342833361303   -0.231884282649724   -0.473254545737369
    57    9.471489999999999    1.326781000000000    4.025525000000000   -0.064319677740297    0.395442239502934    0.431529629927630
    58    9.422082000000000    1.334372000000000    9.425993000000000    0.273876550935852    0.177816827499173    0.408275402470248
    59    9.457786000000000    4.071284000000000    1.317040000000000   -0.054444192740105   -0.512462707451652    0.539129866643427
    60    9.463291999999999    4.083960000000000    6.766434000000000   -0.054967528269627   -0.743647660990629    0.103608960109538
    61    9.464715999999999    6.714443000000000    4.039087000000000   -0.543740053308418    0.220812335801769    0.178469962401544
    62    9.426460000000001    6.759893000000000    9.419211000000001    0.062494886336053   -0.614289663189313    0.425087621379349
    63    9.480112999999999    9.444278000000001    1.375699000000000   -0.372705591026790    0.047226189327134   -0.369248411615673
    64    9.471475000000000    9.425796000000000    6.773515000000000   -0.183821211365415    0.305500393361816   -0.305190768742410
