ITEM: TIMESTEP
0
ITEM: NUMBER OF ATOMS
64
ITEM: BOX BOUNDS xy xz yz pp pp pp
0.0000000000000000e+00 1.0800000000000001e+01 0.0000000000000000e+00
0.0000000000000000e+00 1.0800000000000001e+01 0.0000000000000000e+00
0.0000000000000000e+00 1.0800000000000001e+01 0.0000000000000000e+00
ITEM: ATOMS id xu yu zu fx fy fz
     1   -0.028198000000000   -0.027763000000000    0.005842000000000    0.396794071898568    0.323864038208546   -0.013687405226476
     2   -0.035360000000000    0.017713000000000    5.394007000000000    0.295767927118705   -0.311048586241846   -0.285167654447115
     3    0.007693000000000    2.733184000000000    2.720967000000000   -0.224352407615825   -0.466041068804956   -0.209189263283410
     4   -0.033908000000000    2.713521000000000    8.083646000000000    0.601383487595902   -0.447660205786887    0.248835199112314
     5   -0.017803000000000    5.428480000000000   -0.021724000000000    0.353200935698894   -0.624986274676581    0.396519410801069
     6   -0.020526000000000    5.409938000000000    5.367138000000000    0.494453600611381   -0.613359284618007    0.564723093819965
     7    0.015705000000000    8.094586000000000    2.736387000000000   -0.313879425462731    0.190707454339272   -0.384421415773160
     8    0.027381000000000    8.114170000000000    8.125484999999999   -0.333432919894005   -0.652547039991606   -0.548239845804646
     9    1.313821000000000    1.360487000000000    1.363457000000000    0.051915321852792   -0.120412076795163   -0.291173291521019
    10    1.319207000000000    1.324573000000000    6.747713000000000    0.190493841439653    0.545724500365820   -0.181813336148435
    11    1.363236000000000    4.017345000000000    4.031068000000000    0.056153752391406    0.967533923332797    0.067442750836727
    12    1.349019000000000    4.043196000000000    9.410595000000001    0.062561787704316    0.194385004026354    0.308741406149671
    13    1.316733000000000    6.771851000000000    1.353979000000000    0.535559638398347   -0.200292557070397   -0.190618643305635
    14    1.378502000000000    6.721958000000000    6.751125000000000   -0.704394199349471    0.209416746416603   -0.086615909623654
    15    1.357367000000000    9.411409000000001    4.057514000000000    0.134402119767928    0.667366614597125    0.177416905439306
    16    1.313463000000000    9.437503000000000    9.439567000000000    0.764521241209920    0.645293288150004    0.300671242506385
    17    2.672044000000000    0.016736000000000    2.676797000000000    0.414858682453120   -0.279372079269245    0.384362587621007
    18    2.700029000000000    0.039715000000000    8.095231999999999   -0.271115138473305   -0.549670437244509    0.024042397118044
    19    2.690659000000000    2.662843000000000   -0.011494000000000   -0.084578517460714    0.405576453032861    0.038216005368538
    20    2.688393000000000    2.730314000000000    5.376626000000000    0.171404298153041   -0.441581383102988    0.628131099983957
    21    2.736554000000000    5.405311000000000    2.684652000000000   -0.374691334434984   -0.032507305079915   -0.042966552217331
    22    2.716679000000000    5.426256000000000    8.074852000000000    0.021223715620997   -0.458457438469749    0.486304790538236
    23    2.704291000000000    8.138301999999999   -0.010702000000000   -0.190587035486228   -0.579432847098760   -0.072185492018525
    24    2.702991000000000    8.064757999999999    5.418682000000000   -0.208977942523283    0.465682839052663    0.013202879642331
    25    4.062021000000000    1.361109000000000    4.086498000000000   -0.186714083208598   -0.255329116868208   -0.407414725919708
    26    4.048278000000000    1.366821000000000    9.413750000000000    0.190206245373483   -0.262330154815808    0.531556071913489
    27    4.063990000000000    4.013315000000000    1.357649000000000    0.022757982265574    0.198960584295826   -0.346566592504572
    28    4.061605000000000    4.086896000000000    6.739801000000000   -0.364697931597755   -0.527988615473122    0.055846087827659
    29    4.027769000000000    6.773537000000000    4.073490000000000    0.594277248081803   -0.497605596265878   -0.345150691172026
    30    4.059693000000000    6.714947000000000    9.466654999999999   -0.184628654743889    0.799020562266947   -0.361569128281151
    31    4.070163000000000    9.416871000000000    1.340207000000000   -0.428670987144697    0.423886776621492    0.317822943137953
    32    4.016029000000000    9.431737999999999    6.760604000000000    0.301172293092148    0.088984025145075    0.130665198654352
    33    5.389659000000000   -0.015338000000000    0.035466000000000   -0.027068343972390    0.437675757231793   -0.416611463242039
    34    5.394124000000000   -0.039380000000000    5.403831000000000   -0.200555503445331    0.230183641747896    0.145430697588345
    35    5.423096000000000    2.668550000000000    2.691198000000000   -0.079700383931439    0.048995836354635    0.138065780863751
    36    5.381163000000000    2.692004000000000    8.065631000000000    0.296256308125184    0.314555329293536    0.173343456030783
    37    5.413914000000000    5.418612000000000   -0.032558000000000   -0.173540619519251   -0.363550734422556    0.816214302305170
    38    5.404917000000000    5.360394000000000    5.402680000000000    0.231125827498678    0.526910361842917   -0.474845613783995
    39    5.410171000000000    8.075436000000000    2.670114000000000   -0.302222464504020    0.447013370758560    0.865033587560321
    40    5.436603000000000    8.096738999999999    8.084203000000000   -0.463363054224455   -0.174606814464556    0.100545642511164
    41    6.779746000000000    1.354158000000000    1.323583000000000   -0.262555305237482    0.160442228527616   -0.182881407845620
    42    6.742977000000000    1.314111000000000    6.766207000000000   -0.088670757476550    0.411840647863754   -0.532281928032995
    43    6.769156000000000    4.015047000000000    4.053361000000000   -0.161355886796221    0.390319371347615   -0.318698541657997
    44    6.728318000000000    4.082997000000000    9.443590000000000    0.431673900452554   -0.399221004567816   -0.333375801834750
    45    6.728151000000000    6.755507000000000    1.383050000000000    0.483076738790050   -0.109682306752635   -0.958651912317887
    46    6.768647000000000    6.741155000000000    6.715736000000000   -0.191527695492291   -0.031105175250538    0.168877095141093
    47    6.747926000000000    9.486583000000000    4.033957000000000    0.189648548423262   -0.586405411248840   -0.003236129335173
    48    6.717397000000000    9.453593000000000    9.472894000000000    0.191966496197441    0.085471825747241   -0.249833835206562
    49    8.087678000000000    0.027436000000000    2.673629000000000    0.195037321163289   -0.091091743027264    0.332076351884187
    50    8.061313999999999    0.009813000000000    8.102668000000000    0.608308851824445   -0.455428258451733    0.227745744912853
    51    8.124825000000000    2.731149000000000   -0.003670000000000   -0.103099096395267   -0.189229403502025   -0.324188146527015
    52    8.116740000000000    2.686260000000000    5.366370000000000   -0.436458343763544    0.093206300355449    0.877250275767482
    53    8.086366999999999    5.413000000000000    2.664713000000000    0.178588167585199   -0.053424644980333    0.748913316657906
    54    8.117497999999999    5.432289000000000    8.084149000000000   -0.076439997718347   -0.285777750554586    0.231260502610897
    55    8.106332999999999    8.115411000000000   -0.036365000000000   -0.245160705028437    0.145444604177334    0.846689180590210
    56    8.121563999999999    8.103714000000000    5.433485000000000   -0.211946978240849    0.123698827986021   -0.699146781142127
    57    9.427975000000000    1.383248000000000    4.046929000000000    0.385330161227072   -0.498098375660499   -0.389879590537502
    58    9.483648000000001    1.331105000000000    9.439475000000000   -0.573556253081662    0.177581652341795    0.082857390873923
    59    9.446524000000000    4.040817000000000    1.388776000000000    0.161661736006059    0.396987648490835   -0.537677340341369
    60    9.444869000000001    4.017232000000000    6.772359000000000   -0.270009988623762    0.655944665787778   -0.630380656949146
    61    9.481509000000001    6.761018000000000    4.072040000000000   -0.786314380433627    0.003610457388613   -0.408433510729988
    62    9.449631999999999    6.768194000000000    9.485621000000000   -0.009272781794629    0.002366233524488   -0.687593263834476
    63    9.456032000000000    9.480772000000000    1.374834000000000   -0.205165048311264   -0.636460185863977    0.000822026784962
    64    9.479801000000000    9.425506000000000    6.739420000000000   -0.267078082634906    0.416052305801726    0.484870448011453
