ITEM: TIMESTEP
0
ITEM: NUMBER OF ATOMS
64
ITEM: BOX BOUNDS xy xz yz pp pp pp
0.0000000000000000e+00 1.0800000000000001e+01 0.0000000000000000e+00
0.0000000000000000e+00 1.0800000000000001e+01 0.0000000000000000e+00
0.0000000000000000e+00 1.0800000000000001e+01 0.0000000000000000e+00
ITEM: ATOMS id xu yu zu fx fy fz
     1   -0.028693000000000   -0.025081000000000   -0.012153000000000    0.071127747367487    0.349159751952527    0.158109440853584
     2   -0.038128000000000    0.011879000000000    5.397738000000000    0.842495097281479    0.120568113464738   -0.195358702105728
     3    0.005738000000000    2.728339000000000    2.672360000000000   -0.065221750047239   -0.945293226839726    0.410594599646855
     4   -0.007960000000000    2.697600000000000    8.139125999999999    0.029138213553636    0.293550043021861   -0.678206166628480
     5   -0.031931000000000    5.399267000000000    0.024081000000000    0.219871129795996   -0.207579686885302   -0.487412673883037
     6   -0.026316000000000    5.399586000000000    5.369878000000000    0.166766081308867   -0.463532650126827    0.397483418131190
     7    0.026806000000000    8.078306000000000    2.720269000000000   -0.458994195883675    0.231554552046039   -0.139784754099260
     8   -0.008280000000000    8.130934000000000    8.123969000000001    0.013842656063730   -0.595100800817173   -0.439133052572390
     9    1.324913000000000    1.320588000000000    1.360276000000000    0.323120146255108    0.165866273424912   -0.273485456094145
    10    1.336817000000000    1.377534000000000    6.775847000000000    0.128575682185213   -0.169767528264515   -0.372550723232656
    11    1.338174000000000    4.017571000000000    4.029789000000000    0.094026691660959    0.310199742993202    0.417059121607224
    12    1.323467000000000    4.020284000000000    9.453597000000000    0.549662866319337    0.502561134895851    0.340085419147097
    13    1.317166000000000    6.732153000000000    1.335736000000000    0.527984689962484    0.149002664979801    0.191350509587153
    14    1.321066000000000    6.729162000000000    6.731873000000000    0.040401024067435    0.461942439337801    0.009283394593310
    15    1.367452000000000    9.467924000000000    4.018788000000000   -0.136564153514208   -0.151329765473946    0.559410011716861
    16    1.317156000000000    9.466455000000000    9.434174000000001    0.659590953880360   -0.218520169827476    0.433461062253988
    17    2.720498000000000    0.020982000000000    2.727195000000000   -0.215793670544614    0.256393913698411   -0.123713256509185
    18    2.694980000000000   -0.029907000000000    8.073916000000001   -0.133061675873145    0.442434039659277    0.243414332202789
    19    2.735062000000000    2.688884000000000    0.015719000000000   -0.361507697811481   -0.096115114742280   -0.158854889147882
    20    2.715374000000000    2.735381000000000    5.410574000000000   -0.281017025012364   -0.234995139555404    0.164152517525690
    21    2.690171000000000    5.392444000000000    2.738030000000000   -0.186576614231593   -0.127475113786439   -0.780038140544688
    22    2.682600000000000    5.431550000000000    8.082625999999999    0.080004471831982   -0.328520231648409    0.367997073917300
    23    2.725837000000000    8.104528999999999    0.030198000000000   -0.508994715775582   -0.120026099428052   -0.369156842866976
    24    2.720728000000000    8.076085000000001    5.375537000000000   -0.435000944961709    0.179780435344769    0.218167038780717
    25    4.055890000000000    1.381059000000000    4.074508000000000    0.009136070059265    0.067106011042740   -0.190002530556969
    26    4.069934000000000    1.346480000000000    9.415500000000000   -0.185505560773318   -0.207415204446602    0.335616722769096
    27    4.064650000000000    4.083222000000000    1.333217000000000   -0.004776420694213   -0.325718943826282    0.319381709629808
    28    4.076619000000000    4.078782000000000    6.742062000000000   -0.454448924151758    0.001725456583558    0.238235508693006
    29    4.027191000000000    6.722658000000000    4.031774000000000    0.532069162877890    0.347546080196631    0.101194514162636
    30    4.084110000000000    6.746332000000000    9.470568000000000   -0.709543147552776    0.173575248180533   -0.241734131117423
    31    4.023783000000000    9.473782000000000    1.368630000000000    0.103470593662862   -0.089508458587558   -0.026197951630041
    32    4.034663000000000    9.420437000000000    6.772154000000000    0.167134161475991    0.048077472759456   -0.407316167932478
    33    5.394984000000000   -0.034653000000000    0.019340000000000   -0.065168898941274    0.598478882312514   -0.151354387242989
    34    5.374451000000000    0.026640000000000    5.415413000000000    0.144355521724264   -0.428600185256930    0.072493875874413
    35    5.435794000000000    2.683528000000000    2.693112000000000   -0.211936844284635    0.441800370793321    0.100584943537463
    36    5.387674000000000    2.737452000000000    8.106736000000000    0.359986800909313   -0.335073755726886   -0.246216492503452
    37    5.412616000000000    5.398197000000000   -0.037916000000000   -0.096874976493071    0.216382589648596    0.663076064380299
    38    5.403933000000000    5.372310000000000    5.371403000000000   -0.127886323611290    0.602679012807158    0.163480251858904
    39    5.391046000000000    8.138740000000000    2.695638000000000   -0.402381691994697   -0.655260335779663   -0.053072514401683
    40    5.384475000000000    8.113070000000000    8.134468999999999    0.495679970315804   -0.123135334326867   -0.269907017233141
    41    6.768521000000000    1.320762000000000    1.370052000000000   -0.234453768500483    0.162390283557556   -0.376742294161099
    42    6.775845000000000    1.358811000000000    6.720770000000000   -0.557112107140592    0.035758933031866    0.470376675465078
    43    6.761866000000000    4.077754000000000    4.076247000000000    0.444814411583519   -0.587627185104310   -0.589984701351059
    44    6.733765000000000    4.086520000000000    9.448342000000000    0.546610408602767   -0.401493881089138   -0.253790839558018
    45    6.711490000000000    6.755307000000000    1.359424000000000    0.408603756453263    0.120029095947280   -0.197216845412277
    46    6.731179000000000    6.747522000000000    6.714792000000000    0.103402157088216    0.228122604269907    0.393866059950033
    47    6.717564000000000    9.430654000000001    4.036822000000000    0.011544103466331    0.449717489915382    0.502517356548507
    48    6.752148000000000    9.488474000000000    9.460729000000001    0.296719280707545   -0.334925157519188   -0.183278277541872
    49    8.072751000000000   -0.023831000000000    2.717017000000000    0.107898003299284    0.070945561435798    0.052775127004660
    50    8.109966999999999    0.032377000000000    8.078730999999999   -0.028944760425798   -0.384953391498714    0.026793313715734
    51    8.070217000000000    2.720764000000000    0.016787000000000    0.320307961578697   -0.215655390589887   -0.197463270539405
    52    8.126806000000000    2.675365000000000    5.416569000000000   -0.256409094115320    0.360108937722834   -0.461201884574912
    53    8.126961000000000    5.421676000000000    2.679919000000000   -0.538574472682758   -0.102900391735455    0.226310919789790
    54    8.135021000000000    5.398893000000000    8.080705000000000   -0.835038807057850    0.203844961494806   -0.020581043724768
    55    8.115866000000000    8.125140000000000    0.026763000000000   -0.321332938945128   -0.404871186625198   -0.406844484191606
    56    8.091931000000001    8.138685000000001    5.393806000000000   -0.073385062382820   -0.367376474848725    0.123343719657204
    57    9.420106000000001    1.324191000000000    4.043654000000000    0.321909660267467    0.381256472962959   -0.240582268622032
    58    9.470145000000000    1.355138000000000    9.415827000000000   -0.620310569588913   -0.040741138795783    0.749897295400706
    59    9.468106000000001    4.042604000000000    1.384893000000000   -0.558869360828257    0.162841261218404   -0.571171638938154
    60    9.411110000000001    4.042487000000000    6.755579000000000    0.808877266532865   -0.140173789075039   -0.109537209257721
    61    9.426156000000001    6.734201000000000    4.077962000000000    0.101885544982802    0.554427021406175   -0.342640919064588
    62    9.446913000000000    6.722177000000000    9.421428000000001    0.025846560809523    0.567765239197104    0.533803272924378
    63    9.422428999999999    9.474012000000000    1.366225000000000    0.500430097560373   -0.427190364226121    0.178023368422122
    64    9.481795000000000    9.452729000000000    6.725882000000000   -0.491602771620133   -0.026715994849874    0.392192887543940
