ITEM: TIMESTEP
0
ITEM: NUMBER OF ATOMS
64
ITEM: BOX BOUNDS xy xz yz pp pp pp
0.0000000000000000e+00 1.0800000000000001e+01 0.0000000000000000e+00
0.0000000000000000e+00 1.0800000000000001e+01 0.0000000000000000e+00
0.0000000000000000e+00 1.0800000000000001e+01 0.0000000000000000e+00
ITEM: ATOMS id xu yu zu fx fy fz
     1   -0.002616000000000    0.026243000000000    0.030075000000000    0.276777056233464   -0.509021784413174   -0.286886848643328
     2   -0.008760000000000    0.028323000000000    5.373147000000000    0.179413224056636   -0.811350919047053    0.475990202162496
     3    0.007573000000000    2.706116000000000    2.738798000000000    0.052271013205222    0.012562556038512   -0.627297058171446
     4    0.002696000000000    2.739262000000000    8.107160000000000   -0.261588092511618   -0.723100766724721    0.165407956958189
     5   -0.037721000000000    5.388111000000000    0.005981000000000    0.118698369695501   -0.070740907857678   -0.156904107770355
     6    0.028970000000000    5.383415000000000    5.422038000000000   -0.484861416699033    0.212637551918669   -0.116783183920164
     7    0.003642000000000    8.062379000000000    2.686907000000000   -0.024843194089034    0.538017631396050   -0.250057110573286
     8   -0.020993000000000    8.087771000000000    8.131777000000000    0.559248930386364    0.082569366101821   -0.376504130969137
     9    1.382120000000000    1.336377000000000    1.330437000000000   -0.545904229761607    0.203433329597472    0.647616999105915
    10    1.313865000000000    1.347759000000000    6.767007000000000    0.229713168431510   -0.032633700927725   -0.009957556346679
    11    1.362581000000000    4.028902000000000    4.081569000000000   -0.160850218507118    0.441612327731749   -0.310970710320526
    12    1.325095000000000    4.025301000000000    9.469227999999999    0.380941119357508    0.549865887606175   -0.022182134604480
    13    1.330390000000000    6.739667000000000    1.316703000000000    0.167990866647392   -0.197988242268286    0.271045559145637
    14    1.388340000000000    6.738856000000000    6.752423000000000   -0.573789447820235    0.614008713479205   -0.347849434201159
    15    1.349687000000000    9.416762000000000    4.027749000000000   -0.243467005285492    0.457509176685263    0.070227359648088
    16    1.356404000000000    9.420814000000000    9.476592999999999   -0.200995806498151    0.218752663168792    0.115433341816376
    17    2.677324000000000    0.026138000000000    2.720066000000000    0.593460870887184   -0.383592508610222   -0.030703735570642
    18    2.674782000000000   -0.030659000000000    8.104908000000000    0.230204539169503    0.217820819119452    0.010667071195681
    19    2.671314000000000    2.690607000000000    0.026247000000000    0.554979640219697    0.057049720382497   -0.662702083323097
    20    2.665506000000000    2.708510000000000    5.418378000000000    0.553099488465948   -0.299905287752601    0.348584437024246
    21    2.696262000000000    5.422201000000000    2.733063000000000   -0.315811797373448   -0.381139678852771   -0.511949241208867
    22    2.682495000000000    5.428300000000000    8.077804000000000    0.427883038701851   -0.736457287384476    0.637580249044113
    23    2.722665000000000    8.094343000000000    0.032470000000000   -0.250647104655980    0.140599882405672   -0.036518636711165
    24    2.711888000000000    8.126923000000000    5.372910000000000   -0.234889762022526   -0.419603809465450    0.123694045937693
    25    4.057921000000000    1.382204000000000    4.072364000000000   -0.185714363702417   -0.487059581351420    0.161338453834827
    26    4.089532000000000    1.344541000000000    9.447282000000000   -0.666846106099636    0.159491431788547   -0.187470786871967
    27    4.016634000000000    4.057068000000000    1.329101000000000    0.135527854135683   -0.210185346785299    0.618234977603649
    28    4.080829000000000    4.033937000000000    6.769788000000000   -0.846510641615718    0.398339644974346   -0.344495582021499
    29    4.022207000000000    6.764806000000000    4.025336000000000    0.766483627729547    0.010398211332257    0.382105102861367
    30    4.016156000000000    6.765840000000000    9.464273000000000    0.386993175148616   -0.301542215455509   -0.194488976245039
    31    4.083092000000000    9.429857999999999    1.359960000000000   -0.294376458476191    0.671285337725094    0.005648890334577
    32    4.039449000000000    9.412357000000000    6.741533000000000   -0.001296652486230    0.522496817760660    0.111148734244363
    33    5.401365000000000   -0.008500000000000   -0.039063000000000    0.368108344369834   -0.105418582306889    0.488827469126509
    34    5.411778000000000   -0.020462000000000    5.432289000000000   -0.291664696403277    0.308007085337713   -0.126873094751734
    35    5.401908000000000    2.660177000000000    2.696763000000000   -0.044570916164250    0.552849005056355   -0.173153034646303
    36    5.391619000000000    2.710001000000000    8.062188000000001    0.274921231394516   -0.003177464088189    0.969633419080514
    37    5.369992000000000    5.389225000000000    0.024154000000000    0.379138688384645    0.313733255045989   -0.300858756280424
    38    5.406391000000000    5.362570000000000    5.412574000000000   -0.271909245636570    0.800930351962825    0.026692876508365
    39    5.427818000000000    8.128603000000000    2.697165000000000   -0.080705070656881   -0.239654933004099    0.452782528919514
    40    5.379826000000000    8.082636000000001    8.070142000000001    0.233801486999054   -0.000392059931421    0.534695767610657
    41    6.788606000000000    1.360459000000000    1.349609000000000   -0.558993764995824   -0.294479023220955   -0.219021105741986
    42    6.727197000000000    1.365315000000000    6.779077000000000    0.216726497321443   -0.136970331225125   -0.571833235241964
    43    6.714495000000000    4.058536000000000    4.066327000000000    0.430046630588764   -0.118813074012106   -0.641820982572279
    44    6.771614000000000    4.080231000000000    9.435204000000001   -0.434487425651331   -0.380332042847162    0.334861418814914
    45    6.767027000000000    6.765029000000000    1.382927000000000   -0.392993000858294   -0.188951694926010   -0.397931182580139
    46    6.769900000000000    6.739417000000000    6.783045000000000   -0.258599455877504   -0.079360156537301   -0.495595116725920
    47    6.758431000000000    9.461511000000000    4.087369000000000    0.212256425865435   -0.021564146903707   -0.299771412459511
    48    6.782278000000000    9.426885000000000    9.445119000000000   -0.480499591151293    0.029920338650910   -0.156972221825677
    49    8.116891000000001   -0.003448000000000    2.663906000000000   -0.344788458878810    0.185145551456888    0.822774593221658
    50    8.066837000000000    0.020026000000000    8.090040000000000    0.474694689703917   -0.223857374442588    0.226880562347744
    51    8.111912999999999    2.667269000000000   -0.019666000000000   -0.205557748036281    0.483727855478383   -0.045360716316420
    52    8.065524000000000    2.720279000000000    5.399566000000000    0.369285430735475   -0.346787565550231   -0.030054476967971
    53    8.116434000000000    5.408140000000000    2.664452000000000   -0.320403749149611   -0.185625490653744    0.697357515303192
    54    8.113721000000000    5.423487000000000    8.129327000000000   -0.182862565867642   -0.419273783441880   -0.479184223236840
    55    8.091189000000000    8.113365999999999    0.036657000000000    0.363313458621536   -0.195693931221667   -0.365740283047292
    56    8.111962999999999    8.062752000000000    5.391667000000000   -0.072174513763078    0.404822711075969    0.342652505591893
    57    9.480532999999999    1.329092000000000    4.034816000000000   -0.761079247769296    0.445493867086396    0.066096649484021
    58    9.459751000000001    1.323999000000000    9.478790000000000    0.021192632923934    0.197978169864310   -0.652348417041489
    59    9.411234000000000    4.041036000000000    1.345893000000000    0.461133095039066   -0.305078519419044    0.085004884716800
    60    9.434656000000000    4.035670000000000    6.784047000000000   -0.032039128325321    0.302138567519206   -0.482007430237426
    61    9.446949999999999    6.777061000000000    4.020701000000000    0.234251852737076   -0.759651629862990    0.364679756050015
    62    9.447748000000001    6.732146000000000    9.414277000000000   -0.001692340811474    0.427515735933826    1.030952851033675
    63    9.442676000000001    9.487921000000000    1.360410000000000    0.443939850864019   -0.665193151366592   -0.171235374748711
    64    9.450433000000000    9.435831000000000    6.787404000000000   -0.069083080264903    0.273883428382769   -0.505133796677497
