ITEM: TIMESTEP
0
ITEM: NUMBER OF ATOMS
64
ITEM: BOX BOUNDS xy xz yz pp pp pp
0.0000000000000000e+00 1.0800000000000001e+01 0.0000000000000000e+00
0.0000000000000000e+00 1.0800000000000001e+01 0.0000000000000000e+00
0.0000000000000000e+00 1.0800000000000001e+01 0.0000000000000000e+00
ITEM: ATOMS id xu yu zu fx fy fz
     1    0.001546000000000    0.012393000000000   -0.038000000000000    0.352560575328284   -0.391133860528917    0.518585811339476
     2   -0.025352000000000   -0.022873000000000    5.420835000000000    0.608414547557193    0.464221686489959   -0.606536040744559
     3    0.014255000000000    2.671353000000000    2.724003000000000    0.119594274643114    0.269509293210349   -0.729841024349924
     4    0.037382000000000    2.699214000000000    8.114212000000000   -0.320188015294625    0.166004079473693    0.180973952455344
     5    0.024866000000000    5.397849000000000   -0.031258000000000   -0.598427311616495    0.053120307322718    0.594579312060455
     6   -0.023966000000000    5.431943000000000    5.402293000000000    0.211242741457618   -0.239464757828567    0.035731964821608
     7   -0.031489000000000    8.116027000000001    2.681249000000000    0.275067463774872   -0.225042379758081    0.019776792115184
     8   -0.038121000000000    8.095772000000000    8.111352999999999    0.158437572281810   -0.162159879804134   -0.065077436739140
     9    1.379385000000000    1.328693000000000    1.333191000000000   -0.235937314456126    0.185127195057671    0.055694859277409
    10    1.336697000000000    1.386101000000000    6.760944000000000    0.195369047458139   -0.908402914837704   -0.051041251442884
    11    1.319508000000000    4.025806000000000    4.059215000000000    0.194720239158677    0.268390381010768    0.297872029565436
    12    1.341987000000000    4.043821000000000    9.488699000000000    0.315669503359251    0.227647608483885   -0.721738452399616
    13    1.337989000000000    6.713819000000000    1.362110000000000    0.115103099100135    0.510806294994689   -0.129557930112014
    14    1.347731000000000    6.789837000000000    6.752804000000000   -0.313299516073893   -0.410300973261216    0.132306667184581
    15    1.363034000000000    9.422252000000000    4.024307000000000   -0.299872510183578    0.038010966998947    0.490205736742478
    16    1.343442000000000    9.427927000000000    9.417292000000000   -0.123677057263124    0.035073826755938    0.329073250062962
    17    2.679941000000000   -0.033862000000000    2.692858000000000    0.454737275505530    0.218682262116187    0.000855385115027
    18    2.709499000000000   -0.024831000000000    8.129886000000001   -0.213842246082477    0.730480066772465   -0.163061097733114
    19    2.701057000000000    2.739983000000000    0.000468000000000   -0.120919496829054   -0.632416471688171    0.052405826231476
    20    2.682588000000000    2.664002000000000    5.399032000000000    0.338378879309230    0.384541988738196   -0.062838609969254
    21    2.671774000000000    5.380946000000000    2.720982000000000    0.366418427338393    0.089075578724256    0.172010189476524
    22    2.684798000000000    5.436629000000000    8.105219000000000   -0.040165594576419   -0.470224867285072    0.005051588659215
    23    2.704787000000000    8.089511000000000   -0.038302000000000   -0.366518885217441    0.010352386283039    0.588723494314529
    24    2.697679000000000    8.097951000000000    5.439880000000000    0.281713822151010    0.205154443688695   -0.568785819769477
    25    4.062198000000000    1.316929000000000    4.068908000000000   -0.048497269712745    0.131396470393709   -0.296677968100656
    26    4.038452000000000    1.387484000000000    9.457846999999999    0.190350380401210   -0.360526326836938    0.070809245444809
    27    4.014590000000000    4.032006000000000    1.345276000000000    0.700853084027021    0.318041978702249    0.516656174980901
    28    4.029132000000000    4.031946000000000    6.778958000000000    0.197465594663434    0.116406672022146   -0.218078558391094
    29    4.079045000000000    6.749080000000000    4.077487000000000   -0.355601334314558    0.193527369092212   -0.413037046719461
    30    4.038330000000000    6.730127000000000    9.482692999999999    0.376562937164060   -0.106908444385956   -0.345046097825962
    31    4.035952000000000    9.449515000000000    1.312551000000000    0.190059908092071    0.010084033441385    0.140684466389557
    32    4.031361000000000    9.469319000000000    6.779654000000000    0.372478427481863   -0.224345799414951   -0.292710600656170
    33    5.422853000000000    0.030725000000000    0.011563000000000   -0.425947159393479   -0.446810534385545   -0.464329504103671
    34    5.419947000000000   -0.033799000000000    5.392270000000000   -0.030409212435241    0.057593840102192    0.175216376245129
    35    5.436619000000000    2.696727000000000    2.715759000000000   -0.404886004053600    0.006528574390791   -0.038832939996407
    36    5.428892000000000    2.684903000000000    8.123180000000000   -0.143312979653054    0.203714102415603   -0.314630996636254
    37    5.431217000000000    5.375448000000000   -0.004764000000000   -0.834421995791566    0.179652786443563    0.415856621623834
    38    5.409448000000000    5.432322000000000    5.421587000000000   -0.250463786255687   -0.762194417623709   -0.034101550342980
    39    5.419581000000000    8.108409999999999    2.666150000000000   -0.345255482287433   -0.211838949899428    0.050455776847346
    40    5.380982000000000    8.066770999999999    8.088418000000001   -0.199248692063176    0.369033633594425    0.378866337115835
    41    6.763899000000000    1.313331000000000    1.357886000000000   -0.201029174084191    0.681147999291120   -0.060058702370700
    42    6.780082000000000    1.323887000000000    6.753634000000000   -0.380137711738624   -0.093976830492196    0.171719005228602
    43    6.774301000000000    4.081756000000000    4.048981000000000   -0.453133499313055   -0.512849926405035    0.601755875545452
    44    6.742209000000000    4.071849000000000    9.482587000000001    0.531822615674729   -0.471836697410374   -0.675965445674626
    45    6.751925000000000    6.723737000000000    1.319891000000000    0.084449564186870    0.248723607066053    0.384414731159066
    46    6.717831000000000    6.773687000000000    6.747972000000000    0.574392100889262   -0.446826700306735    0.288060789314269
    47    6.768508000000000    9.442655000000000    4.015308000000000   -0.033839744869873   -0.217653528572048    0.365486552384379
    48    6.757676000000000    9.413314000000000    9.436028000000000   -0.364818168159503    0.483026196484333   -0.069440928362472
    49    8.083567000000000   -0.012091000000000    2.665594000000000    0.388488987328699    0.304441149448434    0.747307819316785
    50    8.121755000000000    0.008127000000000    8.132567999999999    0.124080450005276   -0.334601456617908   -0.282654017404257
    51    8.079409999999999    2.669694000000000   -0.016050000000000    0.367199534175516    0.451355930198956    0.473531575130470
    52    8.090569000000000    2.667641000000000    5.421540000000000    0.320643862832724    0.447592147678795   -0.316890730032301
    53    8.077112000000000    5.400780000000000    2.732795000000000    0.535773140123416    0.324387633162492   -0.525551498145483
    54    8.139683000000000    5.395892000000000    8.102893000000000   -0.781147373462140   -0.202063311883901   -0.292470061660982
    55    8.078958999999999    8.131197000000000    0.013567000000000    0.424146686882191   -0.487633738305743   -0.025579392064248
    56    8.097308999999999    8.065904000000000    5.420742000000000   -0.141165669901246    0.664086145231160   -0.141711650586240
    57    9.470430000000000    1.371088000000000    4.022835000000000   -0.540610354938981   -0.635934825538390    0.473180966234195
    58    9.483456000000000    1.357617000000000    9.470559000000000   -0.370389690982927    0.214816805173262   -0.377825103993829
    59    9.464301000000001    4.070088000000000    1.381496000000000   -0.149812069699487   -0.301985040864502   -0.276465630041268
    60    9.474670000000000    4.031716000000000    6.775633000000000   -0.132057430657735    0.014122168732217   -0.337153285101289
    61    9.430979000000001    6.784423000000000    4.057298000000000    0.126381337833875   -0.333036017801838   -0.201889464557708
    62    9.427289999999999    6.717857000000000    9.442852000000000    0.194872990265477    0.575164059531564    0.474342873365636
    63    9.437616999999999    9.486005000000000    1.362258000000000    0.288039021316743   -0.237364897755368   -0.547573954213977
    64    9.481150000000000    9.437139000000000    6.728452000000000   -0.756455340406157   -0.023508119482802    0.444960744391210
