ITEM: TIMESTEP
0
ITEM: NUMBER OF ATOMS
64
ITEM: BOX BOUNDS xy xz yz pp pp pp
0.0000000000000000e+00 1.0800000000000001e+01 0.0000000000000000e+00
0.0000000000000000e+00 1.0800000000000001e+01 0.0000000000000000e+00
0.0000000000000000e+00 1.0800000000000001e+01 0.0000000000000000e+00
ITEM: ATOMS id xu yu zu fx fy fz
     1   -0.012753000000000    0.010769000000000   -0.036351000000000   -0.048819078075565   -0.148672678808348    0.551770019432753
     2    0.028296000000000    0.001098000000000    5.371749000000000   -0.464814409131390    0.392279995478082    0.337470032708075
     3    0.013947000000000    2.681280000000000    2.667519000000000   -0.447021764694222    0.506995091335175    0.153449453132248
     4   -0.016286000000000    2.702973000000000    8.136412999999999    0.088605626982091    0.115904642565550   -0.743605735226784
     5    0.036255000000000    5.403973000000000    0.016424000000000   -0.455131680078392   -0.498867638345666   -0.399533467686380
     6    0.008708000000000    5.438110000000000    5.391525000000000   -0.106749920892871   -0.448296640492593   -0.240598647379237
     7   -0.027432000000000    8.092354000000000    2.728090000000000    0.558226715054448    0.088703895822930   -0.772077517617800
     8   -0.025027000000000    8.125527999999999    8.082056000000000    0.689814303396217   -0.522226165220467    0.196363479488308
     9    1.341392000000000    1.334779000000000    1.385975000000000    0.167807803609179   -0.121335051408811   -0.792581582222432
    10    1.346685000000000    1.389089000000000    6.742188000000000   -0.238092025594488   -0.347730922850403    0.188796095601278
    11    1.327311000000000    4.017108000000000    4.051830000000000    0.276009456898519    0.216913619156341    0.144539872474360
    12    1.341823000000000    4.030330000000000    9.416143999999999    0.296911291600132    0.014995151924956    0.872494061382038
    13    1.345119000000000    6.710303000000000    1.350546000000000    0.261039249930418    0.713034888365086    0.287449298228444
    14    1.374172000000000    6.725210000000000    6.729970000000000   -0.275630202197846    0.238482052502309    0.615685068038258
    15    1.310825000000000    9.447741000000001    4.042241000000000    0.546299884765339   -0.341054614708605    0.179955305610522
    16    1.339076000000000    9.424540000000000    9.478853000000001   -0.098223152572689    0.601727754657710   -0.775676443140786
    17    2.666834000000000   -0.021033000000000    2.707592000000000    0.175970970060301   -0.030158000271844    0.057865161078082
    18    2.692976000000000    0.032185000000000    8.077311000000000   -0.236755539297724   -0.607512517210672    0.071385969389674
    19    2.725343000000000    2.672934000000000    0.015005000000000   -0.334077791884191    0.150697190252919   -0.108890521090873
    20    2.721645000000000    2.685444000000000    5.430326000000000   -0.031627724279251    0.243857546054220   -0.569516704969013
    21    2.685138000000000    5.417262000000000    2.732881000000000    0.174257022202431   -0.484331143095954   -0.182090328723322
    22    2.679102000000000    5.388445000000000    8.132090000000000    0.631173650464291    0.151357130919820   -0.373020821013546
    23    2.675922000000000    8.131618000000000   -0.004531000000000    0.436626364298884   -0.443570523968416    0.527713099277751
    24    2.690736000000000    8.095386000000000    5.438638000000000    0.132274030306386    0.497385237765571   -0.307589392370502
    25    4.042850000000000    1.315093000000000    4.031824000000000   -0.333353132716586    0.298711857339663    0.092944297010153
    26    4.038557000000000    1.313171000000000    9.439385000000000   -0.033923753286348    0.361294818242234    0.111302332889988
    27    4.063353000000000    4.020074000000000    1.372937000000000   -0.276026039904250    0.716008450203257   -0.324471659268165
    28    4.083141000000000    4.045545000000000    6.728049000000000   -0.324539116971979    0.324487008863737    0.298712814356109
    29    4.028648000000000    6.782234000000000    4.060249000000000   -0.095064126027770   -0.225951397183406    0.056567886538876
    30    4.060076000000000    6.786191000000000    9.463735000000000   -0.160005016147864   -0.372645388927915   -0.000483994753949
    31    4.053829000000000    9.487921999999999    1.362136000000000   -0.190392698772683   -0.611684999695079    0.182162659749666
    32    4.078637000000000    9.476165000000000    6.740238000000000   -0.272822186824182   -0.218762740714978    0.269879213156872
    33    5.360681000000000    0.001645000000000    0.007165000000000    0.708701545253777   -0.024101720824842   -0.171571588803289
    34    5.381601000000000    0.035113000000000    5.394656000000000    0.366187435984792   -0.656107927826106   -0.343031579801044
    35    5.362829000000000    2.685243000000000    2.700742000000000    0.590748592587947   -0.004927352744714    0.290086209078570
    36    5.363515000000000    2.683709000000000    8.101864000000001    0.531080927209106    0.091992662605300   -0.017024530675673
    37    5.439383000000000    5.400527000000000   -0.006981000000000   -0.650240550960847   -0.085373758326713    0.089212143855253
    38    5.386698000000000    5.424082000000000    5.370963000000000    0.384781090434653   -0.168067225308637    0.202123456441461
    39    5.393805000000000    8.083086000000000    2.735715000000000    0.097677524848895    0.475995439193442   -0.375869348403638
    40    5.437939000000000    8.103524999999999    8.112174000000000   -0.799876053054361    0.101369843216242   -0.226387302927948
    41    6.739254000000000    1.384061000000000    1.331989000000000   -0.110381495121132   -0.671269501830853    0.327674622437609
    42    6.728407000000000    1.329383000000000    6.723379000000000    0.365835242054131    0.434874660905515    0.375964598099531
    43    6.770621000000000    4.018826000000000    4.064246000000000   -0.169764313355686    0.411460554108900   -0.292424540464871
    44    6.754435000000000    4.078447000000000    9.422231000000000   -0.112724101328302   -0.399725827323555   -0.064577634784474
    45    6.728294000000000    6.775851000000000    1.328539000000000    0.099788429512032   -0.425869204230724    0.608965828882253
    46    6.736665000000000    6.769071000000000    6.782534000000000    0.261199558284115   -0.344557182492585   -0.647282205792156
    47    6.784443000000000    9.432824000000000    4.060894000000000   -0.269029255180243    0.246135554859699    0.024228611455965
    48    6.736493000000000    9.412360000000000    9.449112000000000    0.434134421668547    0.857050756514272    0.246106134330150
    49    8.130027000000000   -0.023171000000000    2.687291000000000   -0.464794013075123    0.287051577548087   -0.086443398037572
    50    8.114831000000001   -0.003507000000000    8.063017000000000   -0.147566975657158   -0.048983233675485    0.344523112995068
    51    8.060336000000000    2.704039000000000    0.003236000000000    0.242799854316509    0.268172146756842   -0.364838900516213
    52    8.130665000000000    2.680106000000000    5.383754000000000   -0.199509130582966    0.185997135708415    0.433610815915962
    53    8.136632000000001    5.412634000000000    2.690077000000000   -0.759101670599765   -0.088674525892714    0.035217143709696
    54    8.102670000000000    5.438056000000000    8.112024000000000    0.301368558442458   -0.363896680518322   -0.297594889152051
    55    8.074881000000000    8.068871000000000    0.000022000000000    0.440777116066777    0.274726039171723   -0.220477284092028
    56    8.130868000000000    8.075305000000000    5.393893000000000   -0.391087852725604    0.074988467307832    0.242648408250834
    57    9.446546000000000    1.372071000000000    4.016820000000000    0.259396176054079   -0.451441707843728    0.084783015744133
    58    9.454442000000000    1.389748000000000    9.449415000000000   -0.598177984535355   -0.525153963407390    0.098044426473225
    59    9.413430000000000    4.055510000000000    1.334760000000000    0.521640471566842   -0.120402127752771   -0.077862197896496
    60    9.486022999999999    4.059285000000000    6.735299000000000   -0.434038854029895    0.129716605505942    0.165737337068934
    61    9.452636000000000    6.772462000000000    4.017008000000000   -0.141857195041927   -0.557329234585536    0.530389235409444
    62    9.489993000000000    6.750465000000000    9.449415999999999   -0.221638385285112    0.024598081459234    0.167759099025978
    63    9.441193000000000    9.411027000000001    1.351878000000000    0.098208482005765    0.269675815666052   -0.422223904419217
    64    9.475512999999999    9.424624000000000    6.732532000000000   -0.246484606078139    0.592039925613626   -0.265834197333797
