ITEM: TIMESTEP
0
ITEM: NUMBER OF ATOMS
64
ITEM: BOX BOUNDS xy xz yz pp pp pp
0.0000000000000000e+00 1.0800000000000001e+01 0.0000000000000000e+00
0.0000000000000000e+00 1.0800000000000001e+01 0.0000000000000000e+00
0.0000000000000000e+00 1.0800000000000001e+01 0.0000000000000000e+00
ITEM: ATOMS id xu yu zu fx fy fz
     1    0.037577000000000   -0.013040000000000   -0.004236000000000   -0.543588350595111   -0.192261422893374   -0.223871259434301
     2   -0.001984000000000    0.037059000000000    5.385076000000000    0.199353818244897   -0.721143839996518    0.343816465852969
     3    0.015923000000000    2.691824000000000    2.664228000000000   -0.011829956478046    0.094557449454401    0.578639524945063
     4   -0.031305000000000    2.682593000000000    8.117804000000000   -0.069032440205800    0.294486180146911   -0.496322032551778
     5    0.032110000000000    5.396791000000000    0.023636000000000   -0.503121739096559    0.126528056050101   -0.248019514727463
     6   -0.002763000000000    5.430217000000000    5.373937000000000   -0.187550368772418   -0.519062672358830    0.034480260175229
     7    0.028659000000000    8.079174999999999    2.718573000000000   -0.268359995648617    0.377202213814203   -0.333080554882064
     8    0.009777000000000    8.119123999999999    8.066255999999999    0.003968966105723   -0.196070638934990    0.447781502414941
     9    1.326868000000000    1.318021000000000    1.356500000000000    0.549728727315953    0.356224679991023   -0.302106698681290
    10    1.330628000000000    1.382960000000000    6.738236000000000    0.105708316297714   -0.427957901957407    0.328368975895874
    11    1.380393000000000    4.025669000000000    4.059181000000000   -0.116137288167664    0.295251548791757   -0.199412151305204
    12    1.318009000000000    4.035246000000000    9.431055000000001    0.017775325684228    0.141209692040701    0.244196493964010
    13    1.389794000000000    6.745950000000000    1.349843000000000   -0.523069014093680   -0.199121312819390    0.234462653362801
    14    1.314323000000000    6.732603000000000    6.754945000000000    0.530474340196219   -0.023938227232860   -0.029951251500822
    15    1.387502000000000    9.453065000000000    4.036429000000000   -0.557239653814691   -0.163558415949595    0.528746749750350
    16    1.380706000000000    9.425083000000001    9.443974000000001   -0.023238988110763    0.222960956096866   -0.083681012874843
    17    2.681868000000000    0.012414000000000    2.733424000000000    0.515365582741795    0.135782916064986   -0.412739791939998
    18    2.725104000000000   -0.009026000000000    8.070195000000000   -0.199417289760011    0.254800356617126    0.202400354553975
    19    2.681278000000000    2.714663000000000   -0.032164000000000   -0.029189036315412   -0.126607171552231    0.574128919926771
    20    2.720902000000000    2.671321000000000    5.418455000000000   -0.146648100823598    0.078519268799611   -0.348254418354034
    21    2.730954000000000    5.424240000000000    2.692635000000000   -0.037717463614938   -0.604468520535586    0.116040682368514
    22    2.692362000000000    5.386137000000000    8.136735000000000    0.109177407069454    0.145167088588408   -0.417320937827547
    23    2.693447000000000    8.064121000000000    0.016423000000000    0.287674918339454    0.558182591562061   -0.189530536483807
    24    2.690415000000000    8.063682000000000    5.386247000000000    0.159276938388547    0.077442990240315    0.211039830933954
    25    4.088931000000000    1.349670000000000    4.059179000000000   -0.343558081594100    0.200181710284432   -0.317759830754689
    26    4.036002000000000    1.387137000000000    9.454991000000000    0.327097985961713   -0.529552180314105   -0.049405966572785
    27    4.085089000000000    4.031976000000000    1.356623000000000   -0.784871147439518    0.098641315949145   -0.198911970575451
    28    4.031425000000000    4.017337000000000    6.736284000000000    0.411640801942160    0.629015241049490    0.287695691473878
    29    4.080654000000000    6.747875000000000    4.024392000000000   -0.222672603251854    0.277785984509685    0.146082019142269
    30    4.063126000000000    6.787600000000000    9.453735000000000   -0.211209456352604   -0.867740695060259    0.331788644952000
    31    4.036205000000000    9.426254999999999    1.379084000000000   -0.061770815437113    0.345796393166105   -0.188679377904310
    32    4.065171000000000    9.414327999999999    6.759866000000000   -0.320932851408988    0.271351022278452   -0.582306096736653
    33    5.412902000000000   -0.013133000000000    0.035511000000000   -0.387134144221340    0.036364411950218   -0.416870016833838
    34    5.392009000000000   -0.012261000000000    5.362774000000000    0.364557670092937   -0.224340866185690    0.654003502500096
    35    5.414074000000000    2.737396000000000    2.698144000000000    0.017883925787825   -0.654402137876522    0.098806846627071
    36    5.435073000000000    2.715533000000000    8.111340999999999   -0.716199897561201   -0.211117342375527   -0.171324596387706
    37    5.400978000000000    5.372042000000000    0.028591000000000   -0.043219216129066    0.643468826052800   -0.213658643215203
    38    5.402958000000000    5.432451000000000    5.376802000000000   -0.116653146154522   -0.847876872915394   -0.000063787915211
    39    5.429631000000000    8.126118000000000    2.706316000000000   -0.371976622585518   -0.191870146428858    0.008400202933754
    40    5.362329000000000    8.087934000000001    8.105943999999999    0.905109125505909    0.104367905158799   -0.181700518765282
    41    6.742925000000000    1.326278000000000    1.381420000000000   -0.044253982049558    0.762656107584975   -0.631979439388564
    42    6.733414000000000    1.344337000000000    6.785956000000000    0.240058602345652   -0.279302854856816   -0.443053526673817
    43    6.775014000000000    4.025183000000000    4.031068000000000   -0.117416731172886    0.747247773643896    0.112635668349843
    44    6.711311000000000    4.060129000000000    9.449223999999999    0.541869247724522    0.001678931319792    0.370124271462758
    45    6.728625000000000    6.763011000000000    1.381206000000000    0.386207248570777    0.004830405760022   -0.730348064631708
    46    6.735343000000000    6.727123000000000    6.720643000000000    0.165484882342246    0.367428210558219    0.445727665108883
    47    6.773241000000000    9.417660000000000    4.053734000000000   -0.187842927172749    0.885239452401811   -0.241441545360542
    48    6.766577000000000    9.468185000000000    9.418464000000000   -0.456936647959877   -0.273105531672221    0.381989382650027
    49    8.080940000000000    0.019649000000000    2.670834000000000    0.422489272774410   -0.247416237034354    0.812255808718676
    50    8.131335000000000   -0.015405000000000    8.119515000000000   -0.561464985810978    0.221785415016337   -0.446302353304778
    51    8.123867000000001    2.728640000000000   -0.014495000000000   -0.355076864259549   -0.319008156455785    0.197588161211329
    52    8.063013000000000    2.714290000000000    5.405271000000000    0.509023926503019   -0.518774522476792    0.097130265502307
    53    8.113815000000001    5.423215000000000    2.670501000000000   -0.206903101351900   -0.063978279928054    0.471915477486235
    54    8.069960000000000    5.376258000000000    8.111572000000001    0.149905667255173    0.463901472931720   -0.107830736885631
    55    8.115621000000001    8.120290000000001   -0.030730000000000   -0.287466066405107   -0.175740593560585    0.301998260762952
    56    8.083080000000001    8.135702000000000    5.393750000000000    0.359147809206786   -0.504204706846516    0.580154649512368
    57    9.489099000000000    1.341562000000000    4.049757000000000   -0.739036713278762    0.423894350272034   -0.233877581710730
    58    9.425895000000001    1.332889000000000    9.423052999999999    0.477637512293138    0.152478024155270    0.773495220883090
    59    9.445233999999999    4.051845000000000    1.389672000000000    0.289717198788752    0.088169385451326   -0.635338230042538
    60    9.416264000000000    4.070577000000000    6.743800000000000    0.344973476264831   -0.134246171852874   -0.059320099333093
    61    9.425383999999999    6.781519000000000    4.049223000000000    0.186646889660041   -0.123215878283129   -0.020358912602306
    62    9.443391999999999    6.777351000000000    9.421569999999999    0.257775168474789   -0.454647998330682    0.213825448132425
    63    9.417991000000001    9.472512000000000    1.358283000000000    0.630064362062408   -0.335295826891196   -0.157366434439892
    64    9.438008999999999    9.447514000000000    6.788079000000000    0.286940573256272    0.245428795771718   -0.817531710956536
