Random disp. with mag 0.040000 : 9

64 atoms
1 atom types

0.000000   10.800000   xlo xhi
0.000000   10.800000   ylo yhi
0.000000   10.800000   zlo zhi
0.000000    0.000000    0.000000   xy xz yz

Masses

 1 28.085 # Si

Atoms

    1   1   0.000556015579745   0.004299334136176  -0.039764388247031
    2   1  -0.026715337647275   0.026272355632766   5.385998069279649
    3   1   0.022707841793500   2.675306721376000   2.721785222327965
    4   1  -0.003998900712427   2.739761644552599   8.098262065719029
    5   1  -0.032355377762834   5.376527009177234   0.001465684706420
    6   1   0.023753579063906   5.407938726257836   5.368811154124304
    7   1   0.014334428370420   8.074987775990937   2.727729277188809
    8   1  -0.003673560007907   8.088918569148150   8.138258421911312
    9   1   1.382417839413214   1.370981017827342   1.339565414301095
   10   1   1.360661470958507   1.311513238862992   6.752258816987671
   11   1   1.388410549258226   4.058573678010283   4.042850052373804
   12   1   1.312143460358239   4.048880112310100   9.462869664250235
   13   1   1.332868843185273   6.759698873766506   1.315179670968662
   14   1   1.386927419847592   6.744459059975635   6.764340977897134
   15   1   1.386999549076907   9.445314246577494   4.035540501980738
   16   1   1.348485862195095   9.425062937409102   9.481238602658335
   17   1   2.715038739352577   0.036942387289469   2.703016013932349
   18   1   2.735655663182153   0.013356971321826   8.087741737474309
   19   1   2.713213156157582   2.706521405634696   0.037187145264232
   20   1   2.679983498135531   2.684690754455922   5.368936087593788
   21   1   2.734277471572926   5.394186062070410   2.680219881994332
   22   1   2.707404983970840   5.434535789424072   8.118773530867895
   23   1   2.719849123340532   8.121087286329999   0.027592365934240
   24   1   2.721103986651739   8.123143968676967   5.424879277748415
   25   1   4.013878018690243   1.366485203477039   4.054841542375957
   26   1   4.061087017745042   1.346203107870084   9.488244759741367
   27   1   4.082582826134117   4.046082218312611   1.327130578761940
   28   1   4.034709703438862   4.081582174537433   6.769203465378925
   29   1   4.019362168913627   6.740435569711497   4.073871426006405
   30   1   4.025305809490538   6.737436981794281   9.478850780381910
   31   1   4.067378312170072   9.414451319573290   1.344144610513446
   32   1   4.088218242934765   9.461435798909937   6.752930598961091
   33   1   5.394601144895669   0.032283070721441  -0.022992514180857
   34   1   5.438477185741818  -0.000765450168257   5.410905056782501
   35   1   5.389778062130508   2.735642461399369   2.715004230456333
   36   1   5.380848205753507   2.735039475623426   8.097666777941280
   37   1   5.428901695318955   5.408734862168713  -0.026237267208760
   38   1   5.361283309512883   5.406673967895369   5.407515053576413
   39   1   5.429599137666346   8.101427711132898   2.726867316396129
   40   1   5.377532031724766   8.131571141968013   8.109922368488347
   41   1   6.732074396737155   1.385444532188595   1.354728412587196
   42   1   6.743187229578278   1.387308387080456   6.737285031945153
   43   1   6.759582135515751   4.011889415040012   4.042532336847088
   44   1   6.746368130101324   4.055127617299386   9.410496619614644
   45   1   6.710238619929211   6.753337052783042   1.352810112736065
   46   1   6.732670554489651   6.780017329762969   6.730033772709771
   47   1   6.765412156589714   9.445641149770337   4.013346680178604
   48   1   6.733182619816709   9.427388156576376   9.478388030237340
   49   1   8.106450050738129   0.033967442879406   2.720114911625704
   50   1   8.075684031517774  -0.031759436914542   8.100268036644250
   51   1   8.085748659893889   2.685453600022682   0.034428208679509
   52   1   8.076457916667007   2.669814598578116   5.388397765157432
   53   1   8.071039630730942   5.427027949800596   2.694451401854860
   54   1   8.131965785451557   5.406817362043983   8.123058884084582
   55   1   8.120069308311518   8.114615386554613   0.031362610537971
   56   1   8.116576776841509   8.133072461557809   5.415212585449358
   57   1   9.413866384632344   1.341397136515065   4.035155722303799
   58   1   9.478278101602102   1.322632558064815   9.457167432713698
   59   1   9.454871685124708   4.018826149912742   1.374585722580044
   60   1   9.442194283978409   4.018460266589350   6.773330581085251
   61   1   9.461345758530447   6.712441499464885   4.057786706680139
   62   1   9.477957179488877   6.721714971450128   9.445715927759766
   63   1   9.439449603431571   9.441632300706139   1.312334754205283
   64   1   9.469107490615981   9.448930387016320   6.785124916091363

