Random disp. with mag 0.040000 : 7

64 atoms
1 atom types

0.000000   10.800000   xlo xhi
0.000000   10.800000   ylo yhi
0.000000   10.800000   zlo zhi
0.000000    0.000000    0.000000   xy xz yz

Masses

 1 28.085 # Si

Atoms

    1   1   0.020882544756026  -0.033870049980868   0.004091337043811
    2   1  -0.007252462845708  -0.030310122402053   5.425073856158242
    3   1   0.028791957952116   2.697813692032035   2.672318901489414
    4   1  -0.038738139105905   2.694690292878727   8.091564148596740
    5   1   0.014043741009575   5.417594029473917  -0.033063929974020
    6   1  -0.011456010842552   5.422583349688988   5.369036277155351
    7   1   0.032152825993964   8.083295622924531   2.716945783166393
    8   1   0.023352604550704   8.074709944324107   8.120373240896054
    9   1   1.314474227724248   1.336534704538547   1.337485795177194
   10   1   1.389072774692187   1.354125704943784   6.757503121788327
   11   1   1.342591414719904   4.048258314611064   4.010730681236447
   12   1   1.312475790359540   4.063270029960505   9.453979949208980
   13   1   1.383931480031855   6.750626816432385   1.328827806821023
   14   1   1.377031802910131   6.734281457010190   6.725055881701184
   15   1   1.342138496919861   9.411901949541882   4.059313179940905
   16   1   1.384784754367528   9.440083060877095   9.432921499421102
   17   1   2.675900750735223   0.026645191595398   2.682414211711765
   18   1   2.685312825683013   0.030978251029940   8.079393329388072
   19   1   2.682714352932401   2.731993803655509  -0.016661420500879
   20   1   2.700033522898622   2.730645019246142   5.374292381058938
   21   1   2.722054624529125   5.380865563288993   2.727339840318331
   22   1   2.710146582388432   5.409284660541430   8.137561176026120
   23   1   2.660659192678162   8.093738417726088   0.003618489559617
   24   1   2.672206183020798   8.114756373088362   5.424693181062870
   25   1   4.036910106666863   1.384810648969056   4.035273377478857
   26   1   4.070902933521051   1.340384510110903   9.417279826950224
   27   1   4.017079624707288   4.037792120188318   1.330837104574451
   28   1   4.016657311239967   4.028016953841536   6.747761521086448
   29   1   4.022801705724640   6.727524127007185   4.031156223262791
   30   1   4.038372993087664   6.781391680026807   9.471894637136867
   31   1   4.033307380529338   9.457838011516937   1.385495380413063
   32   1   4.020679951609610   9.430632803580439   6.730888577624064
   33   1   5.434805342318439   0.010169598499630  -0.016886900617124
   34   1   5.382082594916474   0.004224622738114   5.364487760450889
   35   1   5.434028155455501   2.680603706092604   2.691884063889222
   36   1   5.394514487577123   2.709579936860227   8.138446507815567
   37   1   5.404501286889139   5.372821410686529   0.029001081001772
   38   1   5.403530444840871   5.429557585605085   5.373281371808724
   39   1   5.411726101579692   8.064650653935596   2.685408143553278
   40   1   5.422376012651219   8.069733907119641   8.086461991298940
   41   1   6.712947035559991   1.356515309524112   1.363587809536951
   42   1   6.761167949551310   1.383071095909088   6.730465939536510
   43   1   6.721774912739775   4.051462586643400   4.078305569937085
   44   1   6.763954846592839   4.063791645837879   9.484857606940993
   45   1   6.720601881031538   6.725174677459534   1.339070500383003
   46   1   6.748339317673247   6.747806694224363   6.710094717843572
   47   1   6.772438423730035   9.426522354026876   4.026647970536331
   48   1   6.728147322451002   9.421770013080490   9.468042403455854
   49   1   8.084851866091329   0.002017804150473   2.736965693629300
   50   1   8.113116373191060  -0.014752272960972   8.065210185444618
   51   1   8.074193462208918   2.669439073399188  -0.000228850469165
   52   1   8.088568702417307   2.722677089525078   5.430904288476643
   53   1   8.071656989598671   5.371790570360248   2.700949652984003
   54   1   8.090555657876422   5.363025858482791   8.088011786583555
   55   1   8.116722718060588   8.065924589679520   0.012618126333058
   56   1   8.103143227415897   8.076519465886598   5.432230182114927
   57   1   9.454668667666223   1.343485637128726   4.089188858347797
   58   1   9.448869711563331   1.365488610559720   9.413137751140505
   59   1   9.444309559428312   4.066955810922521   1.314221244263393
   60   1   9.449606572055194   4.088634529912593   6.760354627607269
   61   1   9.442848191825684   6.780977670005915   4.074274175595527
   62   1   9.418472221246073   6.762310629211965   9.471317776038999
   63   1   9.484693533172463   9.435748714513551   1.363901784705386
   64   1   9.465474192635615   9.423305026655509   6.724545574836331

