Random disp. with mag 0.040000 : 12

64 atoms
1 atom types

0.000000   10.800000   xlo xhi
0.000000   10.800000   ylo yhi
0.000000   10.800000   zlo zhi
0.000000    0.000000    0.000000   xy xz yz

Masses

 1 28.085 # Si

Atoms

    1   1   0.028236509479243   0.001918829535560  -0.028266899823682
    2   1  -0.005282510007085   0.039248931273872   5.394377146464302
    3   1   0.038790014567706   2.705959374242448   2.692265620356126
    4   1   0.009692389166026   2.673999127475750   8.128809932666217
    5   1   0.012205676921281   5.382696939796252   0.033935609004094
    6   1  -0.020493223662621   5.382999775834850   5.429849960841658
    7   1  -0.022377273836381   8.068348716482902   2.709871872536245
    8   1  -0.036235132824829   8.106157906518412   8.115782754400847
    9   1   1.357957198187379   1.379314931041121   1.323974669741556
   10   1   1.374780331319832   1.319877079372898   6.741137447739352
   11   1   1.381909876689561   4.055390596205959   4.073509598937483
   12   1   1.353090965290865   4.014988342688767   9.430904718229586
   13   1   1.383242557435633   6.762759626021951   1.331775721717484
   14   1   1.319108355465917   6.764690666402885   6.729266196233710
   15   1   1.354876432452019   9.459568046557202   4.088531453276772
   16   1   1.338056394711069   9.481662522369573   9.428673139708375
   17   1   2.722274361559504  -0.024266218489899   2.677306312390513
   18   1   2.718574635686582  -0.018635706548580   8.130127949657187
   19   1   2.731648024798579   2.723559928050738   0.006582728658591
   20   1   2.705114079561768   2.718436849065649   5.435127322510638
   21   1   2.734818637888594   5.416295198460991   2.688948802657634
   22   1   2.707113907627802   5.438360353251999   8.108824716235949
   23   1   2.666244730876998   8.082464843887697   0.012373362782643
   24   1   2.723393785883006   8.103613136993577   5.367755992446258
   25   1   4.053884339077900   1.312267912812338   4.037303484478387
   26   1   4.086112207485918   1.343409861147961   9.465889573323562
   27   1   4.049229032756593   4.020577980273956   1.377087826873891
   28   1   4.022576736945224   4.021189801008654   6.745764781291646
   29   1   4.029966736642049   6.776661757861975   4.027913374478196
   30   1   4.040605800894880   6.787818205050070   9.440970471221362
   31   1   4.047117350799476   9.486124273371670   1.333066978800123
   32   1   4.029824736359438   9.428154010043421   6.723247215848609
   33   1   5.394937981737245  -0.031499454671963  -0.024127998807951
   34   1   5.379515609512629  -0.032443182300123   5.411306178337612
   35   1   5.391991214236787   2.701929667827966   2.660857494552946
   36   1   5.419239528916372   2.725294802051709   8.124290193828806
   37   1   5.436241667503511   5.414286679549259  -0.009079224857981
   38   1   5.407660192633806   5.403853542309561   5.439070086517455
   39   1   5.396627139674107   8.139338981289294   2.693591539627760
   40   1   5.411731547456688   8.135051776788542   8.115288680068524
   41   1   6.745915723682004   1.344447609931695   1.310598354710905
   42   1   6.739541262449714   1.352023333918303   6.788555426708951
   43   1   6.762251764722212   4.084272558687776   4.033408255601520
   44   1   6.764764860654095   4.019609649594700   9.471410873221524
   45   1   6.771284646024752   6.719849350154269   1.334575922799689
   46   1   6.729047529426810   6.720262034326989   6.766632719997355
   47   1   6.711969794194742   9.444167138806733   4.060939889245774
   48   1   6.740540128031448   9.456313754546391   9.411650980118567
   49   1   8.113938982613327   0.035109693472257   2.686846514226658
   50   1   8.105672273137738   0.039294956302243   8.104871522006077
   51   1   8.100456601270363   2.689493761155094   0.038592880957680
   52   1   8.079471590391494   2.666242616482530   5.406246875779127
   53   1   8.113599922488305   5.407347269531504   2.663107456868040
   54   1   8.077172696426810   5.368836907530414   8.089618483766351
   55   1   8.133041195383896   8.078430511448534   0.006560226461894
   56   1   8.069969747968345   8.126349477824975   5.398027949983788
   57   1   9.426524703309761   1.317817079506207   4.046370940370356
   58   1   9.423686866596178   1.376526523545225   9.435718453897517
   59   1   9.417298209687830   4.063648851028940   1.368555370542480
   60   1   9.442156270363489   4.061861932876545   6.712613231567550
   61   1   9.484833974074842   6.769392979417310   4.046758611489964
   62   1   9.470352348493558   6.715599757972100   9.451550889815110
   63   1   9.410512395046682   9.448504657248060   1.343795726867312
   64   1   9.419823415912912   9.464010829385611   6.772205189320568

