Random disp. with mag 0.040000 : 14

64 atoms
1 atom types

0.000000   10.800000   xlo xhi
0.000000   10.800000   ylo yhi
0.000000   10.800000   zlo zhi
0.000000    0.000000    0.000000   xy xz yz

Masses

 1 28.085 # Si

Atoms

    1   1   0.037576593719759  -0.013040411931472  -0.004236420786193
    2   1  -0.001983602779215   0.037058757342683   5.385076400426493
    3   1   0.015922824494077   2.691823622272690   2.664228356098843
    4   1  -0.031305216209702   2.682592729947225   8.117803662189941
    5   1   0.032109696812408   5.396790536770595   0.023636131586923
    6   1  -0.002762527789716   5.430217406098194   5.373937060624176
    7   1   0.028659397538113   8.079175362075247   2.718573459237724
    8   1   0.009777038845897   8.119124472402678   8.066255903231454
    9   1   1.326867765226781   1.318021135848291   1.356500150918495
   10   1   1.330627898666308   1.382959507692524   6.738235964018092
   11   1   1.380392535375977   4.025668706037775   4.059180518914733
   12   1   1.318008932755436   4.035246143427000   9.431055466942224
   13   1   1.389794133598561   6.745950030660573   1.349842902929308
   14   1   1.314322594476203   6.732602562051386   6.754944885025420
   15   1   1.387502438041838   9.453065345073805   4.036429045704276
   16   1   1.380705728139347   9.425083161465167   9.443974270429097
   17   1   2.681868416273209   0.012413577290346   2.733423775526038
   18   1   2.725104009025220  -0.009025889613354   8.070195268034265
   19   1   2.681278234100869   2.714662540929331  -0.032163727630886
   20   1   2.720902412526091   2.671320697535256   5.418454992840011
   21   1   2.730954264109175   5.424240123350708   2.692634543231955
   22   1   2.692362095147485   5.386137470460228   8.136735441799750
   23   1   2.693446686174440   8.064120618259146   0.016423277498653
   24   1   2.690415262414110   8.063682121820783   5.386247017415515
   25   1   4.088931296658612   1.349670235927545   4.059178529083444
   26   1   4.036001752208369   1.387136823693518   9.454990529503034
   27   1   4.085089327454938   4.031975857074107   1.356623395696103
   28   1   4.031425372421730   4.017337215264298   6.736284107625173
   29   1   4.080654451096593   6.747874635780077   4.024391652632408
   30   1   4.063126362165534   6.787599870383904   9.453734750783232
   31   1   4.036205081406567   9.426254956457599   1.379083898091041
   32   1   4.065171069337355   9.414327986901080   6.759866414578341
   33   1   5.412902207439341  -0.013132826780722   0.035511433425585
   34   1   5.392008798220710  -0.012260933208787   5.362773528088573
   35   1   5.414074258214651   2.737396115454259   2.698143712134637
   36   1   5.435072841457388   2.715532871247540   8.111341327211237
   37   1   5.400977916365362   5.372042449089284   0.028590540859821
   38   1   5.402958454815148   5.432451157270880   5.376801510030019
   39   1   5.429630655983911   8.126117624709801   2.706316162243093
   40   1   5.362329244376896   8.087933979026722   8.105943509792768
   41   1   6.742924509095715   1.326277932064211   1.381419753680021
   42   1   6.733413847081117   1.344337080778295   6.785955957465208
   43   1   6.775013944643468   4.025183108526549   4.031067898400641
   44   1   6.711311414085234   4.060128711251528   9.449223773036463
   45   1   6.728625441512199   6.763011492616521   1.381206238308098
   46   1   6.735342882598681   6.727123491000807   6.720642986434350
   47   1   6.773241186196875   9.417659546298944   4.053733941425911
   48   1   6.766576502399408   9.468185289926247   9.418464071307463
   49   1   8.080939886096907   0.019648649856742   2.670834221820629
   50   1   8.131334532504770  -0.015405044475638   8.119514909105888
   51   1   8.123867374083103   2.728639924933687  -0.014494935466224
   52   1   8.063013363436390   2.714290101569843   5.405270836066036
   53   1   8.113815381655344   5.423215499554452   2.670501257481811
   54   1   8.069959808486141   5.376258316390501   8.111572352967185
   55   1   8.115620582443833   8.120290095024378  -0.030729618416392
   56   1   8.083080183287516   8.135702390840025   5.393750272748193
   57   1   9.489099131373045   1.341562063547416   4.049756783439174
   58   1   9.425895271650342   1.332888758807204   9.423052504828254
   59   1   9.445234140679137   4.051845104231007   1.389672183898929
   60   1   9.416263611360222   4.070577155214926   6.743800260908178
   61   1   9.425383983992221   6.781519007645829   4.049222881651921
   62   1   9.443392047624549   6.777350624832382   9.421569764568648
   63   1   9.417990809770977   9.472512389966491   1.358282755512437
   64   1   9.438009395567668   9.447514251358545   6.788079475561500

