ITEM: TIMESTEP
0
ITEM: NUMBER OF ATOMS
64
ITEM: BOX BOUNDS xy xz yz pp pp pp
0.0000000000000000e+00 1.0800000000000001e+01 0.0000000000000000e+00
0.0000000000000000e+00 1.0800000000000001e+01 0.0000000000000000e+00
0.0000000000000000e+00 1.0800000000000001e+01 0.0000000000000000e+00
ITEM: ATOMS id xu yu zu fx fy fz
     1    0.005274000000000   -0.021333000000000   -0.033423000000000   -0.277978771207286    0.137924334079846    0.329587719139272
     2    0.007382000000000   -0.005568000000000    5.438917000000000   -0.131997050484176   -0.163094405155314   -0.634175670261979
     3    0.020060000000000    2.727808000000000    2.679401000000000   -0.035604817337164   -0.398823515698224    0.061656710599189
     4    0.022114000000000    2.697309000000000    8.066777999999999   -0.313512207129772    0.263346547933436    0.216241877840569
     5   -0.002807000000000    5.426542000000000    0.029794000000000   -0.190384479106472   -0.398940732857914   -0.996709700823239
     6    0.020939000000000    5.370685000000000    5.382617000000000   -0.597717105346122    0.676867353070939    0.162233834380005
     7    0.039867000000000    8.101001000000000    2.696901000000000   -0.453167355511759    0.250937991529977   -0.057428257436536
     8    0.034642000000000    8.090807000000000    8.117760000000001   -0.564439287612969   -0.021117023173952   -0.075831412391768
     9    1.339446000000000    1.320898000000000    1.324668000000000    0.161451770012215    0.130455125753991    0.272708323515797
    10    1.335017000000000    1.314748000000000    6.761525000000000    0.369321838446673    0.611108090990658   -0.384822672081897
    11    1.333896000000000    4.086145000000000    4.044153000000000    0.519928624609725   -0.554472087876778   -0.285083947518331
    12    1.355924000000000    4.011304000000000    9.458216999999999   -0.227153381968915    0.678124141201915   -0.210785271706966
    13    1.320987000000000    6.745711000000000    1.322800000000000    0.611594393619258    0.480980717427008    0.168991435954971
    14    1.312232000000000    6.737988000000000    6.755415000000000    0.547599659600642   -0.124415681280943   -0.076851680523546
    15    1.368996000000000    9.432017000000000    4.080262000000000   -0.150878776500238    0.157911752705571   -0.060534353428367
    16    1.346023000000000    9.477472000000001    9.421200000000001    0.210169064650194   -0.366327251917233    0.202547177002771
    17    2.691126000000000   -0.038750000000000    2.695561000000000    0.186980552870612    0.418269089465925    0.123313902251994
    18    2.679430000000000   -0.014099000000000    8.068726000000000    0.531687037899209    0.108572193437645    0.183711653936839
    19    2.680907000000000    2.731355000000000    0.015886000000000    0.459566381829434   -0.634219558909698    0.103232441938025
    20    2.693514000000000    2.686714000000000    5.362833000000000   -0.264236987947418    0.355718143234307    0.582372837873695
    21    2.678924000000000    5.431512000000000    2.687240000000000    0.270505426951616   -0.235211176492166   -0.045331636561037
    22    2.708308000000000    5.369962000000000    8.074926000000000   -0.254375467540329    0.080128609016078    0.152099969697510
    23    2.685864000000000    8.108817999999999   -0.036365000000000   -0.052561156310165    0.042718101934182    0.370402731572563
    24    2.705393000000000    8.107139999999999    5.438986000000000    0.121297341741812   -0.372211055979302   -0.129677435348852
    25    4.054111000000000    1.376098000000000    4.080034000000000   -0.082360547694675   -0.643692224935375   -0.601350970736856
    26    4.028819000000000    1.316069000000000    9.450168000000000   -0.042436015847392    0.465609450428273    0.005658262832539
    27    4.063933000000000    4.030430000000000    1.381983000000000   -0.055694595122152    0.428962381708952   -0.257858955056384
    28    4.082936000000000    4.056332000000000    6.728202000000000   -0.703564644371091   -0.298823587865601    0.029763473262994
    29    4.044102000000000    6.714868000000000    4.068192000000000    0.167746014521881    0.463959906110829   -0.009258971519208
    30    4.010651000000000    6.752623000000000    9.443308000000000    0.226400543138122   -0.120034256822116   -0.198766972428008
    31    4.059885000000000    9.414225000000000    1.364914000000000   -0.245457096379651    0.079745281686178   -0.126966827290396
    32    4.083737000000000    9.469868000000000    6.741812000000000   -0.332550353218484   -0.413202974735848    0.325539512215795
    33    5.370051000000000   -0.001365000000000    0.026481000000000    0.334441082855317    0.078876971269832   -0.062519987153251
    34    5.382976000000000   -0.032365000000000    5.383792000000000    0.397853270509092    0.686601371181189   -0.023123986574500
    35    5.409017000000000    2.708689000000000    2.737990000000000    0.092844520730858   -0.284173700590925   -0.363446106006630
    36    5.380272000000000    2.734772000000000    8.101305999999999   -0.129380560938561   -0.729686102665444    0.052520339360765
    37    5.404640000000000    5.413360000000000   -0.037416000000000   -0.372379445262422   -0.171654793903933    0.428029955253064
    38    5.409832000000000    5.393707000000000    5.438259000000000    0.369951460137336    0.305814516642433   -0.473666901811943
    39    5.439503000000000    8.106171000000000    2.698818000000000   -0.732181743366531   -0.454634059448622    0.157551232767825
    40    5.394927000000000    8.120811000000000    8.133781000000001    0.103528294797153   -0.015353239135226   -0.008268926152945
    41    6.783171000000000    1.368290000000000    1.337149000000000   -0.645709427655991   -0.228277258096741    0.371952117801720
    42    6.731551000000000    1.383970000000000    6.739721000000000   -0.080665363653211   -0.403844354669806    0.079227731192775
    43    6.753418000000000    4.018447000000000    4.074346000000000    0.261067282937815    0.374596505937399    0.168742296975822
    44    6.714558000000000    4.032558000000000    9.443704000000000    0.656877274483540    0.091975128856618    0.234082329237001
    45    6.710660000000000    6.744110000000000    1.354202000000000    0.690238001794608   -0.108828039502339   -0.217688831274036
    46    6.759351000000000    6.778717000000000    6.776227000000000   -0.226592611983400    0.279949238553492   -0.392975623535598
    47    6.729004000000000    9.459296000000000    4.017247000000000    0.562528201103499    0.230150498259307    0.232781958522563
    48    6.763323000000000    9.466488999999999    9.483921000000000    0.028013095119630    0.079536388357052   -0.182031772439738
    49    8.123010000000001    0.032546000000000    2.696635000000000   -0.226507020332314   -0.352938290451697   -0.113433563675354
    50    8.102762000000000    0.009396000000000    8.061216999999999   -0.235622804275733    0.227822864261019    0.531962031697606
    51    8.112814999999999    2.663553000000000    0.010362000000000    0.264703299828634    0.663686404022771   -0.445588818225656
    52    8.125412000000001    2.678142000000000    5.421828000000000    0.077088689855316    0.128962142302869   -0.311620803966454
    53    8.090846000000001    5.413834000000000    2.736398000000000   -0.171166281205492   -0.394602443147601   -0.523950019337553
    54    8.066801999999999    5.419221000000000    8.088666000000000    0.150015308398905   -0.414274452117801    0.215945785765896
    55    8.138871000000000    8.102753999999999    0.009027000000000   -0.757032337196612   -0.430866701894632   -0.236209026599826
    56    8.101184000000000    8.136613000000001    5.383934000000000    0.171324897309755   -0.212555506900289    0.063258815265329
    57    9.480121000000000    1.332773000000000    4.030102000000000    0.151436159981422    0.344408159949832    0.317625887173068
    58    9.487221999999999    1.356160000000000    9.436711000000001   -0.374470280759494   -0.060136616652897   -0.195538942019988
    59    9.484458000000000    4.063350000000000    1.334689000000000   -0.727212218597601   -0.040142927206605    0.274787866825586
    60    9.446312000000001    4.089223000000000    6.743074000000000   -0.012472509023612   -0.358158016837187    0.140152511952748
    61    9.459400000000000    6.750631000000000    4.011125000000000    0.076961314828141    0.231656054204814    0.535383532459863
    62    9.423698000000000    6.741807000000000    9.420999000000000    0.351850648382684    0.031785195573609    0.310217722262840
    63    9.419072999999999    9.443061000000000    1.325600000000000    0.711837759624287    0.256819595652355    0.529150859522072
    64    9.470896000000000    9.465047000000000    6.780610000000000   -0.169346511733607   -0.439268209766667   -0.231936794009966
