ITEM: TIMESTEP
0
ITEM: NUMBER OF ATOMS
64
ITEM: BOX BOUNDS xy xz yz pp pp pp
0.0000000000000000e+00 1.0800000000000001e+01 0.0000000000000000e+00
0.0000000000000000e+00 1.0800000000000001e+01 0.0000000000000000e+00
0.0000000000000000e+00 1.0800000000000001e+01 0.0000000000000000e+00
ITEM: ATOMS id xu yu zu fx fy fz
     1    0.017021000000000    0.013702000000000   -0.033504000000000   -0.441262946434937   -0.210464720202777    0.305660354822120
     2    0.016627000000000    0.035793000000000    5.406509000000000   -0.288887539269270   -0.970711428764342   -0.177646142117060
     3    0.004257000000000    2.690021000000000    2.738500000000000    0.202267774737503    0.221084811203495   -0.173804039902975
     4    0.017487000000000    2.730282000000000    8.119422000000000   -0.395133570974376   -0.759905208727904   -0.090409294553283
     5   -0.010042000000000    5.361320000000000   -0.001731000000000    0.458604966018190    0.126140300147295    0.036541196043175
     6    0.014627000000000    5.364110000000000    5.390102000000000    0.080400180263262    0.733478349881415    0.210517562926942
     7   -0.017523000000000    8.064467000000000    2.705510000000000    0.255644936974824    0.131188499525387    0.227478706214034
     8    0.001405000000000    8.138235999999999    8.111663999999999   -0.142559754333862   -0.488750399297812    0.037899053307538
     9    1.312183000000000    1.340924000000000    1.359356000000000    0.418136210115800   -0.045423296943891    0.095713197865424
    10    1.322539000000000    1.321575000000000    6.756161000000000    0.401128671251443    0.671939620831229    0.235458099179400
    11    1.376811000000000    4.079681000000000    4.049562000000000    0.062425492487850   -0.462869140561457    0.052940215761178
    12    1.363411000000000    4.013051000000000    9.442589999999999    0.303519139256013    0.429633322639953    0.372784940807944
    13    1.353424000000000    6.718273000000000    1.374118000000000   -0.124412999207771    0.214596719312856   -0.393634554067038
    14    1.366847000000000    6.782378000000000    6.766366000000000   -0.237406744689155   -0.292951728537090   -0.151370680845219
    15    1.385767000000000    9.446210000000001    4.032497000000000   -0.842391686129177    0.056869921515471    0.089164014736618
    16    1.357873000000000    9.477910000000000    9.422449000000000    0.104264901063731   -0.048061140796349    0.208049748259355
    17    2.709822000000000    0.003625000000000    2.738606000000000   -0.194196361794633   -0.218278383075366   -0.956371440034525
    18    2.719414000000000   -0.002620000000000    8.065125000000000   -0.362762783305761    0.439258729590857    0.605294161316188
    19    2.719317000000000    2.676265000000000    0.025759000000000   -0.572352656933661    0.006750918400690   -0.135307296940435
    20    2.699452000000000    2.713050000000000    5.437808000000000    0.025001063904560   -0.195966079527503   -0.295821788205865
    21    2.732821000000000    5.415611000000000    2.716706000000000   -0.424354909255936   -0.349753232761197   -0.400614300751273
    22    2.723239000000000    5.373354000000000    8.081294000000000   -0.440857553939275    0.233334343828392    0.184856580826933
    23    2.672768000000000    8.128753000000000    0.005629000000000    0.116624287462687   -0.495573705546251   -0.180354973336750
    24    2.682158000000000    8.134105000000000    5.389113000000000    0.501220290114483   -0.485233964211316    0.189209841049198
    25    4.029843000000000    1.340850000000000    4.016684000000000    0.309004758039176    0.249617728181497    1.023002774622399
    26    4.025451000000000    1.379095000000000    9.437716999999999    0.457698303210191   -0.309505174282084   -0.018570406319007
    27    4.011152000000000    4.043739000000000    1.342812000000000    0.762077852084695    0.086223725867850    0.257132996709771
    28    4.085916000000000    4.059640000000000    6.764734000000000   -0.534121507092253   -0.231711131218624   -0.260475240816272
    29    4.046069000000000    6.711456000000000    4.040056000000000    0.452783872064405    0.724342702306010    0.558577313923417
    30    4.032618000000000    6.724506000000000    9.424545999999999    0.294457071646581    0.488870978176387    0.380169180409865
    31    4.055499000000000    9.412461000000000    1.362672000000000   -0.011449769289261    0.324819831323198    0.030737610127030
    32    4.033731000000000    9.468451999999999    6.781541000000000    0.388093785353546   -0.637446810993021   -0.516149942591512
    33    5.394884000000000    0.021031000000000    0.033638000000000   -0.432205341748366   -0.337699245525981   -0.610306263161106
    34    5.393609000000000   -0.022903000000000    5.432166000000000   -0.244594535209652    0.268347581997056   -0.435469966529757
    35    5.409829000000000    2.678635000000000    2.732356000000000   -0.498640361877837    0.205329497377030   -0.558296001173380
    36    5.397929000000000    2.718359000000000    8.064522999999999    0.341310070582510   -0.215558279877273    0.791808495790936
    37    5.413683000000000    5.422659000000000    0.029989000000000   -0.215122849324230   -0.306898994556217   -0.425538890500582
    38    5.388910000000000    5.365882000000000    5.417690000000000    0.407545709594625    0.632052342382773   -0.219564952256137
    39    5.432150000000000    8.076388000000000    2.697019000000000   -0.275277461701831    0.000534684641054    0.166902372360145
    40    5.433421000000000    8.111890000000001    8.081517000000000   -0.539127929213486    0.123592690074754    0.623646925609435
    41    6.710184000000000    1.351586000000000    1.346508000000000    0.446949595390339    0.070276811034247    0.300935282577670
    42    6.719459000000000    1.327333000000000    6.762389000000000    0.543562933223550    0.296098866244259   -0.244918452237961
    43    6.718020000000000    4.027338000000000    4.042018000000000    0.594487917324097    0.449705523430283    0.115069243158542
    44    6.786916000000000    4.064961000000000    9.446343000000001   -0.358622192439255   -0.200996864456152    0.201905750086671
    45    6.785701000000000    6.760706000000000    1.335481000000000   -0.535322619399225   -0.157707289337748    0.235549937379828
    46    6.751985000000000    6.782281000000000    6.773537000000000    0.125234144155377   -0.718492534973181   -0.397204974733564
    47    6.731370000000000    9.482772000000001    4.036623000000000    0.070379265530058   -0.627228213305435    0.437463001126974
    48    6.763692000000000    9.487475000000000    9.447139000000000   -0.346956509986193   -0.534942196491598    0.569950306027073
    49    8.061087000000001   -0.009002000000000    2.702186000000000    0.593500727426281    0.420173268703667   -0.044242928615021
    50    8.084410000000000   -0.036243000000000    8.093411000000000    0.282858505557526    0.502845576062767   -0.178114405003649
    51    8.092734000000000    2.674681000000000    0.030102000000000    0.051810022378641    0.344919743321510   -0.117649222508742
    52    8.125411000000000    2.730673000000000    5.396330000000000   -0.325423571095173   -0.375535700568272    0.194049083026245
    53    8.096945000000000    5.431256000000000    2.675226000000000   -0.001530086337503   -0.722451255896718    0.270486132253592
    54    8.122741000000000    5.376489000000000    8.076976999999999    0.039213540927297    0.492870469255226    0.264998923962322
    55    8.090783999999999    8.089933000000000    0.037600000000000    0.495218248781377    0.539755296251357   -0.681631151288498
    56    8.106553000000000    8.060988000000000    5.394075000000000   -0.333362964670887    0.506752142341074   -0.138365739570772
    57    9.478794000000001    1.356310000000000    4.077039000000000   -0.617316586240543   -0.130473656319814   -0.245434878747404
    58    9.410859000000000    1.343305000000000    9.454815999999999    0.288770553920344    0.059186420729483   -0.218273541994484
    59    9.480943999999999    4.035727000000000    1.370946000000000   -0.440573075594191   -0.083124704526637    0.026092835835582
    60    9.489713000000000    4.051964000000000    6.754362000000000   -0.199172652116021   -0.095272227919568   -0.090035468945047
    61    9.423646000000000    6.722741000000000    4.062745000000000    0.406468889766449   -0.068051892241746   -0.029548315232529
    62    9.467860000000000    6.736730000000000    9.483240000000000   -0.200139247622585    0.196859490092559   -0.319687679064484
    63    9.459910000000001    9.440238000000001    1.387503000000000   -0.020312466322864    0.231507077736250   -0.396854765952541
    64    9.424676000000000    9.419992000000001    6.742369000000000    0.315187552941760    0.298080617138837   -0.198378140260937
