ITEM: TIMESTEP
0
ITEM: NUMBER OF ATOMS
64
ITEM: BOX BOUNDS xy xz yz pp pp pp
0.0000000000000000e+00 1.0800000000000001e+01 0.0000000000000000e+00
0.0000000000000000e+00 1.0800000000000001e+01 0.0000000000000000e+00
0.0000000000000000e+00 1.0800000000000001e+01 0.0000000000000000e+00
ITEM: ATOMS id xu yu zu fx fy fz
     1   -0.030160000000000   -0.001544000000000   -0.026229000000000    0.518864362723484    0.129180043033145    0.259417708281340
     2   -0.007260000000000    0.033783000000000    5.379850000000000    0.150300735892856   -0.257615683954335    0.135300736767789
     3    0.014288000000000    2.731885000000000    2.719473000000000   -0.206371838644993   -0.153214159755494    0.001751989197324
     4    0.012586000000000    2.737967000000000    8.100263000000000   -0.025787821154780   -0.666276957502242    0.044775430337094
     5   -0.017238000000000    5.365337000000000   -0.010065000000000    0.480942270932937    0.157957882327806   -0.135465556998173
     6    0.017236000000000    5.367256000000000    5.384809000000000   -0.474714683793736    0.316765890731040    0.173577640953047
     7    0.003076000000000    8.118979000000000    2.735076000000000   -0.311125276575547   -0.465302353255824   -0.670901687361649
     8    0.029875000000000    8.102982000000001    8.126431000000000   -0.476284085967098   -0.396839651818702   -0.224849570897560
     9    1.317266000000000    1.371243000000000    1.358788000000000    0.182069252301433   -0.149802627421755   -0.196756019342059
    10    1.366950000000000    1.383588000000000    6.736415000000000    0.008802028999206   -0.281540575537628    0.080523331428855
    11    1.362534000000000    4.086223000000000    4.038564000000000    0.370326118629102   -0.260856645988590   -0.086729547806146
    12    1.382707000000000    4.046937000000000    9.427177000000000   -0.282287663425145    0.472891217536653   -0.070456857652884
    13    1.350259000000000    6.727274000000000    1.317084000000000   -0.424462751860782    0.249778756752933    0.372571508502692
    14    1.317264000000000    6.750779000000000    6.727028000000000    0.291473738275061   -0.036287044439064    0.161677498778093
    15    1.365895000000000    9.425043000000001    4.023084000000000   -0.304134325738640    0.584961181848967    0.522594122488805
    16    1.327089000000000    9.423707000000000    9.469590000000000    0.534103979771331    0.302177695818718    0.177353906698852
    17    2.667087000000000    0.010838000000000    2.719981000000000    0.445967724181741   -0.020972814252688   -0.577904627897207
    18    2.707111000000000   -0.014062000000000    8.136765000000000   -0.346575597180351   -0.007389916960191   -0.556224510356600
    19    2.678120000000000    2.725522000000000   -0.021677000000000    0.267834079038901   -0.322203812546781    0.505722067914615
    20    2.719558000000000    2.719733000000000    5.371224000000000    0.182248863272156   -0.074619166277538    0.143422410788987
    21    2.706321000000000    5.437071000000000    2.686368000000000    0.025530511514668   -0.454629907063740   -0.275733408998778
    22    2.720986000000000    5.426951000000000    8.079186000000000   -0.293509835732715   -0.120310893556167   -0.113434873755843
    23    2.704430000000000    8.097728999999999    0.039689000000000   -0.088735175055206    0.145641430285494   -0.255261046007438
    24    2.661813000000000    8.111888000000000    5.399309000000000    0.700894371745620   -0.159845821442288    0.084806381631565
    25    4.074780000000000    1.335916000000000    4.021936000000000   -0.189565044251764    0.269076170017735    0.081480736265954
    26    4.011713000000000    1.359132000000000    9.442880000000001    0.525898846521539   -0.049581622670860    0.281452510792728
    27    4.069100000000000    4.069473000000000    1.320743000000000   -0.139111890547879   -0.230660789136848    0.311670323332611
    28    4.076409000000000    4.045773000000000    6.779744000000000   -0.152917791749907   -0.173508279500759   -0.232886891357240
    29    4.052333000000000    6.746492000000000    4.010222000000000   -0.073154707377536   -0.059734974832780    0.996745311183568
    30    4.011948000000000    6.761830000000000    9.453483000000000    0.326933846251218   -0.051511206013264    0.163208709716621
    31    4.080376000000000    9.460985000000001    1.326408000000000   -0.354516901035145   -0.078650261576238    0.665689065297321
    32    4.082397000000000    9.472989000000000    6.745318000000000   -0.514271914209968   -0.282007457175560    0.023496919546741
    33    5.407063000000000   -0.034023000000000   -0.019813000000000   -0.096530432420485    0.907082001719742    0.224314818482197
    34    5.401902000000000   -0.020078000000000    5.365456000000000    0.150325575434435    0.277070845575694    0.214016862374546
    35    5.439039000000000    2.706700000000000    2.694428000000000   -0.447735818519349    0.128807064912312   -0.094921314655964
    36    5.434055000000000    2.685062000000000    8.114735000000000   -0.534015356479731    0.340957667621070    0.333664034300658
    37    5.424222000000000    5.387918000000000   -0.029450000000000   -0.505873762091856    0.722268916830056    0.400499363081240
    38    5.412010000000000    5.369799000000000    5.423316000000000   -0.044404299708973    0.424046537535659   -0.290475619589844
    39    5.395987000000000    8.061738999999999    2.710954000000000    0.415155394626730    0.641159090231519   -0.302110087808146
    40    5.377168000000000    8.106195000000000    8.132254000000000   -0.079210434551332   -0.153030695573586   -0.385348100438904
    41    6.777415000000000    1.379009000000000    1.352627000000000   -0.514081782228989   -0.455477051018124   -0.283270570583091
    42    6.716246000000000    1.366430000000000    6.763811000000000    0.191540237133424   -0.532024617210175   -0.390821868950883
    43    6.768469000000000    4.073726000000000    4.023619000000000    0.045012175513607   -0.143347921423419    0.344209358050855
    44    6.744914000000000    4.080173000000000    9.475763000000001    0.465051411675444   -0.578868150728433   -0.554407955793545
    45    6.776481000000000    6.767199000000000    1.325445000000000   -0.363538960461747   -0.244252124382312    0.211185981758882
    46    6.733955000000000    6.752271000000000    6.786570000000000    0.114741651250844    0.057210636288143   -0.208823936203359
    47    6.784380000000000    9.468559000000001    4.041422000000000   -0.101725409201626   -0.482655356288155   -0.004507834396288
    48    6.714205000000000    9.433306999999999    9.456331000000000    0.711738337180367   -0.086513823875623   -0.036278810786046
    49    8.094391000000000    0.039277000000000    2.694915000000000    0.164396897287918   -0.477503163505479   -0.266850094742515
    50    8.061709000000000   -0.002172000000000    8.088639000000001    0.166802845426545   -0.228750923850503    0.028910619245893
    51    8.079886000000000    2.674326000000000   -0.023158000000000    0.603509266971645    0.428129959692156    0.115653535354630
    52    8.074465999999999    2.674057000000000    5.416583000000000    0.099296884761700    0.338366927068049   -0.240251842020411
    53    8.111812000000000    5.405463000000000    2.662176000000000    0.020540007254482    0.286712631438070    0.418981768675844
    54    8.114660000000001    5.420261000000000    8.131218000000001   -0.204563346293721   -0.513391678291926   -0.654470493718493
    55    8.126797000000000    8.099586000000000    0.029695000000000   -0.079338271760217    0.110816293902424   -0.640598175647098
    56    8.126715000000001    8.100811999999999    5.429760000000000   -0.416732657540142    0.130028604745867    0.120951545541428
    57    9.419637000000000    1.363096000000000    4.027492000000000    0.371536551549150    0.165787667361390    0.314731989613532
    58    9.445695000000001    1.312060000000000    9.438084000000000   -0.167146023265723    0.569700354167586   -0.371859457053601
    59    9.477379000000001    4.072870000000000    1.368093000000000   -0.383083864370725   -0.626678800196189   -0.302227841351618
    60    9.466277000000000    4.015693000000000    6.737427000000000   -0.407150467818777    0.386374869762195    0.057243688811061
    61    9.431336000000000    6.757675000000000    4.084537000000000    0.252640422486048   -0.199576799477288   -0.347632228388956
    62    9.449002999999999    6.710073000000000    9.452194000000000    0.299632566707570    0.684071816791506    0.224454647578692
    63    9.458382000000000    9.470651000000000    1.316784000000000   -0.039773177981408   -0.084194892036980    0.768523038929279
    64    9.475607999999999    9.443293000000001    6.779987000000000   -0.041679586315165    0.332606466387331   -0.193118731245846
