Disp. Num. 7 ( 0.040000 Angstrom, 1 : +x, 4 : +x)

16 atoms
1 atom types

0.0 5.680103302 xlo xhi
0.0 5.680103302 ylo yhi
0.0 5.680103302 zlo zhi
0.000000    0.000000    0.000000   xy xz yz

Masses

1 55.845  # Fe

Atoms

    1   1   0.040000000000000   0.000000000000000   0.000000000000000
    2   1   0.000000000000000   0.000000000000000   2.840051651000000
    3   1   0.000000000000000   2.840051651000000   0.000000000000000
    4   1   0.040000000000000   2.840051651000000   2.840051651000000
    5   1   2.840051651000000   0.000000000000000   0.000000000000000
    6   1   2.840051651000000   0.000000000000000   2.840051651000000
    7   1   2.840051651000000   2.840051651000000   0.000000000000000
    8   1   2.840051651000000   2.840051651000000   2.840051651000000
    9   1   1.420025825500000   1.420025825500000   1.420025825500000
   10   1   1.420025825500000   1.420025825500000   4.260077476500000
   11   1   1.420025825500000   4.260077476500000   1.420025825500000
   12   1   1.420025825500000   4.260077476500000   4.260077476500000
   13   1   4.260077476500000   1.420025825500000   1.420025825500000
   14   1   4.260077476500000   1.420025825500000   4.260077476500000
   15   1   4.260077476500000   4.260077476500000   1.420025825500000
   16   1   4.260077476500000   4.260077476500000   4.260077476500000

