ITEM: TIMESTEP
0
ITEM: NUMBER OF ATOMS
16
ITEM: BOX BOUNDS xy xz yz pp pp pp
0.0000000000000000e+00 5.6801033020000000e+00 0.0000000000000000e+00
0.0000000000000000e+00 5.6801033020000000e+00 0.0000000000000000e+00
0.0000000000000000e+00 5.6801033020000000e+00 0.0000000000000000e+00
ITEM: ATOMS id xu yu zu fx fy fz
1    0.040000000000000    0.000000000000000    0.000000000000000   -0.251164048910141   -0.000002492219210   -0.000004973262548
2    0.040000000000000    0.000000000000000    2.840051651000000   -0.251163393259048    0.000001950626029    0.000000951287802
3    0.000000000000000    2.840051651000000    0.000000000000000    0.000232007936575    0.000000035390258    0.000002914413926
4    0.000000000000000    2.840051651000000    2.840051651000000    0.000223875744268    0.000002662360203    0.000001329623046
5    2.840051651000000    0.000000000000000    0.000000000000000    0.070052810013294    0.000002452856279    0.000002398373908
6    2.840051651000000    0.000000000000000    2.840051651000000    0.070056274533272    0.000001037784386   -0.000000679981895
7    2.840051651000000    2.840051651000000    0.000000000000000    0.007825817912817    0.000000621890649   -0.000001059204806
8    2.840051651000000    2.840051651000000    2.840051651000000    0.007829604670405   -0.000000579108018    0.000000206899131
9    1.420025825500000    1.420025825500000    1.420025825500000    0.044143527746201    0.053025856614113   -0.000002244203642
10    1.420025825500000    1.420025825500000    4.260077476500000    0.044141195714474    0.053021367639303    0.000006691327144
11    1.420025825500000    4.260077476500000    1.420025825500000    0.044141422957182   -0.053022086620331   -0.000002247361408
12    1.420025825500000    4.260077476500000    4.260077476500000    0.044137887656689   -0.053026147186756   -0.000001170011728
13    4.260077476500000    1.420025825500000    1.420025825500000    0.042388472706079   -0.048310089856386   -0.000002517321263
14    4.260077476500000    1.420025825500000    4.260077476500000    0.042384214699268   -0.048312295228243    0.000001169129973
15    4.260077476500000    4.260077476500000    1.420025825500000    0.042385138571262    0.048307936638594   -0.000001771375537
16    4.260077476500000    4.260077476500000    4.260077476500000    0.042385131120682    0.048309613019228    0.000001057982445
