ITEM: TIMESTEP
0
ITEM: NUMBER OF ATOMS
16
ITEM: BOX BOUNDS xy xz yz pp pp pp
0.0000000000000000e+00 5.6801033020000000e+00 0.0000000000000000e+00
0.0000000000000000e+00 5.6801033020000000e+00 0.0000000000000000e+00
0.0000000000000000e+00 5.6801033020000000e+00 0.0000000000000000e+00
ITEM: ATOMS id xu yu zu fx fy fz
1    0.040000000000000    0.000000000000000    0.000000000000000   -0.258092105388641   -0.000000100582838   -0.000001903623343
2    0.000000000000000    0.000000000000000    2.840051651000000    0.007095037493855    0.000002351720468   -0.000004483445082
3    0.000000000000000    2.840051651000000    0.000000000000000    0.007095930632204   -0.000003573019058    0.000004051267751
4    0.040000000000000    2.840051651000000    2.840051651000000   -0.258100599050522    0.000005559530109    0.000001015054295
5    2.840051651000000    0.000000000000000    0.000000000000000    0.065813779830933    0.000002277913154    0.000002260218025
6    2.840051651000000    0.000000000000000    2.840051651000000    0.012057613581419    0.000000495696440   -0.000000918720616
7    2.840051651000000    2.840051651000000    0.000000000000000    0.012053888291121    0.000000042928150   -0.000002241402399
8    2.840051651000000    2.840051651000000    2.840051651000000    0.065818175673485    0.000000227999408    0.000000830012141
9    1.420025825500000    1.420025825500000    1.420025825500000    0.044161908328533    0.000000156316673   -0.000003516179277
10    1.420025825500000    1.420025825500000    4.260077476500000    0.044159367680550   -0.000002433574991    0.000006727932487
11    1.420025825500000    4.260077476500000    1.420025825500000    0.044158287346363    0.000002883106390   -0.000004989233275
12    1.420025825500000    4.260077476500000    4.260077476500000    0.044152423739433    0.000001461769671    0.000004835522304
13    4.260077476500000    1.420025825500000    1.420025825500000    0.042409591376781   -0.000003288558219   -0.000002876477083
14    4.260077476500000    1.420025825500000    4.260077476500000    0.042404647916555   -0.000003272376489    0.000001554872142
15    4.260077476500000    4.260077476500000    1.420025825500000    0.042407300323248   -0.000000960368197   -0.000003305787686
16    4.260077476500000    4.260077476500000    4.260077476500000    0.042404789477587   -0.000001795589924    0.000002902001143
