ITEM: TIMESTEP
0
ITEM: NUMBER OF ATOMS
16
ITEM: BOX BOUNDS xy xz yz pp pp pp
0.0000000000000000e+00 5.6801033020000000e+00 0.0000000000000000e+00
0.0000000000000000e+00 5.6801033020000000e+00 0.0000000000000000e+00
0.0000000000000000e+00 5.6801033020000000e+00 0.0000000000000000e+00
ITEM: ATOMS id xu yu zu fx fy fz
1    0.040000000000000    0.000000000000000    0.000000000000000   -0.190699607133865   -0.000003796070814   -0.000004094094038
2    0.000000000000000    0.000000000000000    2.840051651000000    0.009564531967044    0.000000939291226    0.000000999018084
3    0.000000000000000    2.840051651000000    0.000000000000000    0.009562719613314    0.000001601933036    0.000002803455573
4    0.000000000000000    2.840051651000000    2.840051651000000   -0.001519187353551    0.000004514004104    0.000000688596629
5    2.880051651000000    0.000000000000000    0.000000000000000   -0.190693855285645    0.000001540203812    0.000002028682502
6    2.840051651000000    0.000000000000000    2.840051651000000    0.009565288200974    0.000001041800715   -0.000000797881512
7    2.840051651000000    2.840051651000000    0.000000000000000    0.009564885869622    0.000000338462996    0.000000741973054
8    2.840051651000000    2.840051651000000    2.840051651000000   -0.001507482491434   -0.000000956177246   -0.000001542939572
9    1.420025825500000    1.420025825500000    1.420025825500000    0.043287701904774    0.002630126429722    0.002629576018080
10    1.420025825500000    1.420025825500000    4.260077476500000    0.043286837637424    0.002626140601933   -0.002625362947583
11    1.420025825500000    4.260077476500000    1.420025825500000    0.043286889791489   -0.002627819310874    0.002626398112625
12    1.420025825500000    4.260077476500000    4.260077476500000    0.043282322585583   -0.002630684059113   -0.002629973925650
13    4.260077476500000    1.420025825500000    1.420025825500000    0.043255694210529    0.002627895446494    0.002626922912896
14    4.260077476500000    1.420025825500000    4.260077476500000    0.043253190815449    0.002626848872751   -0.002626181114465
15    4.260077476500000    4.260077476500000    1.420025825500000    0.043255820870399   -0.002629502676427    0.002625482622534
16    4.260077476500000    4.260077476500000    4.260077476500000    0.043254345655441   -0.002628207206726   -0.002627745270729
