ITEM: TIMESTEP
0
ITEM: NUMBER OF ATOMS
16
ITEM: BOX BOUNDS xy xz yz pp pp pp
0.0000000000000000e+00 5.6801033020000000e+00 0.0000000000000000e+00
0.0000000000000000e+00 5.6801033020000000e+00 0.0000000000000000e+00
0.0000000000000000e+00 5.6801033020000000e+00 0.0000000000000000e+00
ITEM: ATOMS id xu yu zu fx fy fz
1    0.040000000000000    0.000000000000000    0.000000000000000   -0.254709780216217   -0.000002998858690   -0.000006228685379
2    0.000000000000000    0.000000000000000    2.840051651000000    0.003553405404091    0.000004398956662    0.000003106426448
3    0.000000000000000    2.840051651000000    0.000000000000000    0.003556093666703    0.000000504893251   -0.000006076530553
4    0.000000000000000    2.840051651000000    2.840051651000000   -0.003310333238915    0.000002971093636    0.000003061926691
5    2.840051651000000    0.000000000000000    0.000000000000000    0.064019858837128    0.000000010963902   -0.000000209759548
6    2.840051651000000    0.000000000000000    2.840051651000000    0.006020162254572    0.000001978711225    0.000000832864316
7    2.840051651000000    2.840051651000000    0.000000000000000    0.006018797867000   -0.000001741762389   -0.000001061504008
8    2.840051651000000    2.840051651000000    2.840051651000000    0.001793890842237   -0.000001914566383    0.000001312000677
9    1.420025825500000    1.420025825500000    1.420025825500000    0.022167680785060    0.026597395539284    0.026598781347275
10    1.420025825500000    1.420025825500000    4.260077476500000    0.022166471928358    0.026595145463943   -0.026594698429108
11    1.420025825500000    4.260077476500000    1.420025825500000    0.022165326401591   -0.026596181094646    0.026593312621117
12    1.420025825500000    4.260077476500000    4.260077476500000    0.022163987159729   -0.026592902839184   -0.026593191549182
13    4.260077476500000    1.420025825500000    1.420025825500000    0.021099328994751   -0.024083241820335   -0.024080138653517
14    4.260077476500000    1.420025825500000    4.260077476500000    0.021099269390106   -0.024082111194730    0.024079877883196
15    4.260077476500000    4.260077476500000    1.420025825500000    0.021097239106894    0.024080555886030   -0.024080455303192
16    4.260077476500000    4.260077476500000    4.260077476500000    0.021098677068949    0.024078182876110    0.024081792682409
