ITEM: TIMESTEP
0
ITEM: NUMBER OF ATOMS
16
ITEM: BOX BOUNDS xy xz yz pp pp pp
0.0000000000000000e+00 5.6801033020000000e+00 0.0000000000000000e+00
0.0000000000000000e+00 5.6801033020000000e+00 0.0000000000000000e+00
0.0000000000000000e+00 5.6801033020000000e+00 0.0000000000000000e+00
ITEM: ATOMS id xu yu zu fx fy fz
1    0.040000000000000    0.000000000000000    0.000000000000000   -0.258351206779480    0.000000432133675    0.000002523587682
2   -0.040000000000001    0.000000000000000    2.840051651000000    0.258352041244507    0.000000009074654   -0.000000912928954
3    0.000000000000000    2.840051651000000    0.000000000000000    0.006865141913295    0.000000182131771   -0.000001542808604
4    0.000000000000000    2.840051651000000    2.840051651000000   -0.006861731410027   -0.000002097920515   -0.000004455563612
5    2.840051651000000    0.000000000000000    0.000000000000000    0.058016858994961   -0.000001031492957   -0.000000536456355
6    2.840051651000000    0.000000000000000    2.840051651000000   -0.058014977723360    0.000000922882464   -0.000001475331374
7    2.840051651000000    2.840051651000000    0.000000000000000    0.004224122501910   -0.000000802727300   -0.000000525178621
8    2.840051651000000    2.840051651000000    2.840051651000000   -0.004225584678352   -0.000000045023626   -0.000000019412255
9    1.420025825500000    1.420025825500000    1.420025825500000    0.001232450129464    0.002694768365473    0.050674803555012
10    1.420025825500000    1.420025825500000    4.260077476500000    0.001232852227986    0.002692549955100   -0.050669118762016
11    1.420025825500000    4.260077476500000    1.420025825500000    0.001233825576492   -0.002691330621019    0.050673373043537
12    1.420025825500000    4.260077476500000    4.260077476500000    0.001233560382389   -0.002692976733670   -0.050673592835665
13    4.260077476500000    1.420025825500000    1.420025825500000   -0.001233715098351    0.002691473346204   -0.050675876438618
14    4.260077476500000    1.420025825500000    4.260077476500000   -0.001232762355357    0.002693273592740    0.050677701830864
15    4.260077476500000    4.260077476500000    1.420025825500000   -0.001235089381225   -0.002692176727578   -0.050677113234997
16    4.260077476500000    4.260077476500000    4.260077476500000   -0.001235733041540   -0.002693224232644    0.050676777958870
