ITEM: TIMESTEP
0
ITEM: NUMBER OF ATOMS
16
ITEM: BOX BOUNDS xy xz yz pp pp pp
0.0000000000000000e+00 5.6801033020000000e+00 0.0000000000000000e+00
0.0000000000000000e+00 5.6801033020000000e+00 0.0000000000000000e+00
0.0000000000000000e+00 5.6801033020000000e+00 0.0000000000000000e+00
ITEM: ATOMS id xu yu zu fx fy fz
1    0.040000000000000    0.040000000000000    0.000000000000000   -0.256575524806976   -0.256569564342499   -0.000004190951586
2    0.000000000000000    0.000000000000000    2.840051651000000    0.003543264232576    0.003546088933945   -0.000003227207344
3    0.000000000000000    2.840051651000000    0.000000000000000    0.003459052182734    0.063918031752110   -0.000001933851536
4    0.000000000000000    2.840051651000000    2.840051651000000   -0.003357733599842    0.006077911704779    0.000003059380106
5    2.840051651000000    0.000000000000000    0.000000000000000    0.063921511173248    0.003458289662376   -0.000001440828783
6    2.840051651000000    0.000000000000000    2.840051651000000    0.006076217629015   -0.003345400094986    0.000001458916813
7    2.840051651000000    2.840051651000000    0.000000000000000    0.006071058567613    0.006070386152714   -0.000002131273504
8    2.840051651000000    2.840051651000000    2.840051651000000    0.001841670135036    0.001839413074777    0.000001639302354
9    1.420025825500000    1.420025825500000    1.420025825500000    0.052027262747288    0.052003931254148    0.057325817644596
10    1.420025825500000    1.420025825500000    4.260077476500000    0.052023530006409    0.052004128694534   -0.057321175932884
11    1.420025825500000    4.260077476500000    1.420025825500000   -0.004527131095529   -0.002751236315817   -0.000877424841747
12    1.420025825500000    4.260077476500000    4.260077476500000   -0.004531323909760   -0.002753506414592    0.000882498221472
13    4.260077476500000    1.420025825500000    1.420025825500000   -0.002771297236905   -0.004552039317787   -0.000878727936652
14    4.260077476500000    1.420025825500000    4.260077476500000   -0.002770203864202   -0.004551693331450    0.000878490274772
15    4.260077476500000    4.260077476500000    1.420025825500000    0.042786382138729    0.042802758514881   -0.045181512832642
16    4.260077476500000    4.260077476500000    4.260077476500000    0.042783513665199    0.042802441865206    0.045178819447756
