ITEM: TIMESTEP
0
ITEM: NUMBER OF ATOMS
16
ITEM: BOX BOUNDS xy xz yz pp pp pp
0.0000000000000000e+00 5.6801033020000000e+00 0.0000000000000000e+00
0.0000000000000000e+00 5.6801033020000000e+00 0.0000000000000000e+00
0.0000000000000000e+00 5.6801033020000000e+00 0.0000000000000000e+00
ITEM: ATOMS id xu yu zu fx fy fz
1    0.040000000000000    0.000000000000000    0.000000000000000   -0.254579842090607    0.000000495463610    0.063925132155418
2    0.000000000000000    0.000000000000000    2.880051651000000    0.003451750613749    0.000001978085493   -0.254580020904541
3    0.000000000000000    2.840051651000000    0.000000000000000    0.003553593531251   -0.000002038490493    0.006029839627445
4    0.000000000000000    2.840051651000000    2.840051651000000   -0.003321373835206    0.000004165514838    0.003548581851646
5    2.840051651000000    0.000000000000000    0.000000000000000    0.064048185944557    0.000002088941983    0.006033546756953
6    2.840051651000000    0.000000000000000    2.840051651000000    0.006033820100129    0.000000983796781    0.003549874061719
7    2.840051651000000    2.840051651000000    0.000000000000000    0.006030466407537    0.000000570507837    0.001801742473617
8    2.840051651000000    2.840051651000000    2.840051651000000    0.001801231643185   -0.000000456639100   -0.003317981259897
9    1.420025825500000    1.420025825500000    1.420025825500000   -0.001904599019326    0.002518184017390    0.047679588198662
10    1.420025825500000    1.420025825500000    4.260077476500000    0.048745021224022    0.053176980465651   -0.004439127631485
11    1.420025825500000    4.260077476500000    1.420025825500000   -0.001904029748403   -0.002520101610571    0.047681011259556
12    1.420025825500000    4.260077476500000    4.260077476500000    0.048737760633230   -0.053179465234280   -0.004441741853952
13    4.260077476500000    1.420025825500000    1.420025825500000    0.045183967798948   -0.048159800469875   -0.002949431538582
14    4.260077476500000    1.420025825500000    4.260077476500000   -0.005531298927963    0.002540586516261    0.046215612441301
15    4.260077476500000    4.260077476500000    1.420025825500000    0.045184031128883    0.048158437013626   -0.002949265995994
16    4.260077476500000    4.260077476500000    4.260077476500000   -0.005528651177883   -0.002542626112700    0.046212576329708
