ITEM: TIMESTEP
0
ITEM: NUMBER OF ATOMS
16
ITEM: BOX BOUNDS xy xz yz pp pp pp
0.0000000000000000e+00 5.6801033020000000e+00 0.0000000000000000e+00
0.0000000000000000e+00 5.6801033020000000e+00 0.0000000000000000e+00
0.0000000000000000e+00 5.6801033020000000e+00 0.0000000000000000e+00
ITEM: ATOMS id xu yu zu fx fy fz
1    0.040000000000000    0.000000000000000    0.000000000000000   -0.254771292209625    0.006076698657125   -0.000000841915607
2    0.000000000000000    0.000000000000000    2.840051651000000    0.003556407522410    0.064025662839413    0.000000599306077
3    0.000000000000000    2.840051651000000    0.000000000000000    0.003550009801984    0.003550402354449    0.000003091510735
4    0.000000000000000    2.880051651000000    2.840051651000000   -0.003359161550179   -0.254766225814819   -0.000000898719009
5    2.840051651000000    0.000000000000000    0.000000000000000    0.064027994871140    0.001798809389584    0.000003662338713
6    2.840051651000000    0.000000000000000    2.840051651000000    0.006027115508914    0.006026115268469   -0.000001050313585
7    2.840051651000000    2.840051651000000    0.000000000000000    0.006026001181453   -0.003313784254715    0.000000151980203
8    2.840051651000000    2.840051651000000    2.840051651000000    0.001806654850952    0.003549417946488   -0.000000890839146
9    1.420025825500000    1.420025825500000    1.420025825500000   -0.001884783385321    0.047708511352539    0.050673596560955
10    1.420025825500000    1.420025825500000    4.260077476500000   -0.001885789330117    0.047705586999655   -0.050670787692070
11    1.420025825500000    4.260077476500000    1.420025825500000    0.048768505454063   -0.004452238325030   -0.000002529202902
12    1.420025825500000    4.260077476500000    4.260077476500000    0.048764109611511   -0.004454055801034   -0.000000052567486
13    4.260077476500000    1.420025825500000    1.420025825500000    0.045206375420094   -0.002959261182696   -0.000005757217878
14    4.260077476500000    1.420025825500000    4.260077476500000    0.045201059430838   -0.002959818579257    0.000005902445992
15    4.260077476500000    4.260077476500000    1.420025825500000   -0.005514638032764    0.046233840286732   -0.050677604973316
16    4.260077476500000    4.260077476500000    4.260077476500000   -0.005518544465303    0.046230450272560    0.050673421472311
